729
Atoms. Timestep: 120000
3 3.9835 0.478133 14.9573
2 9.46096 24.0883 23.7466
2 7.44359 4.42619 8.19598
1 19.7887 21.2683 22.8066
2 20.7614 26.6942 10.9367
2 22.1252 2.50979 16.8702
2 21.4015 17.4109 26.2884
2 5.03178 10.6269 11.2538
2 21.998 7.01529 16.2218
2 24.177 2.98537 3.30665
3 27.2522 2.20036 25.6508
2 4.64619 23.1828 0.955163
2 8.67496 16.8163 26.8719
1 23.2288 27.7359 4.02501
3 16.6241 26.0004 2.09211
1 15.5195 14.7624 20.5182
1 17.1375 14.8793 13.3471
3 0.343882 28.0644 0.613749
1 5.75063 17.9878 4.46104
3 19.28 25.8387 13.4022
2 0.458944 14.2578 24.8835
2 6.76641 26.7001 5.73924
2 0.987473 22.1228 3.36749
3 10.1557 25.0689 17.8039
2 3.10726 3.60902 2.59579
2 9.76637 3.34161 2.75922
2 7.25419 25.9526 17.5982
2 18.1472 10.1777 8.25478
3 7.44494 2.541 13.4281
1 22.6575 7.72136 11.4999
1 1.8591 7.96185 16.4252
1 9.23209 11.3948 8.18457
1 15.4368 12.5344 1.34169
1 16.8108 20.8638 25.2493
2 15.3134 13.4081 12.0504
2 21.1194 26.1015 25.334
1 26.5575 13.2676 6.46715
1 18.6165 13.5281 2.96389
3 25.9643 26.4885 19.3027
1 27.2456 14.0081 10.3889
1 18.4526 14.0326 27.5688
2 18.7648 15.879 1.36163
2 10.4227 6.37591 17.5058
3 20.8253 12.0067 20.8438
2 24.4874 8.4889 13.4267
2 2.9512 1.6091 21.8966
3 17.0923 9.79037 19.8723
2 15.7808 27.8001 27.9447
3 7.25884 1.60468 7.48412
2 5.15016 2.06027 17.8407
2 12.248 2.92354 24.3033
2 3.39409 4.41815 6.66335
1 2.3931 8.78842 26.9919
2 6.93778 8.23175 13.401
2 20.6979 21.6757 9.97681
3 9.73614 3.65864 10.1048
3 8.97143 8.14246 4.136
2 2.14621 10.6549 3.1026
2 24.4298 14.9265 2.92794
3 3.78346 26.8646 21.9285
2 0.657277 9.41818 24.8248
1 16.4289 20.273 4.13942
2 23.5583 20.252 26.6016
3 7.66637 27.1788 22.6099
2 28.2702 7.38566 18.713
2 28.1015 22.4283 21.8634
2 25.2015 11.7248 15.2159
2 19.1948 28.4275 27.1911
2 4.55641 8.99529 0.678273
2 9.88153 26.737 12.8725
2 11.6337 9.43453 4.44618
2 3.32537 27.4423 12.319
1 3.9871 2.36586 4.89648
2 4.46972 28.1479 2.59339
2 12.6477 20.2911 27.3067
2 16.6262 17.6799 5.26911
1 14.9156 16.6565 25.4103
1 9.10933 13.8046 25.1377
2 26.4107 20.1441 23.951
2 4.35849 1.03053 7.757
1 26.0238 6.50087 9.08345
3 16.2903 5.31469 19.8493
3 22.2612 27.2073 7.98776
2 25.7658 6.5644 2.204
2 12.6009 25.8257 21.7724
3 9.60427 18.1854 11.4249
1 1.61992 5.92999 10.659
2 22.4474 7.90747 4.98219
2 28.2313 11.2296 5.44622
2 9.89359 5.99008 5.92958
1 19.7826 4.49819 7.04642
3 0.626242 26.7937 16.387
2 21.3614 13.3243 2.76443
2 23.6021 12.6278 22.2376
2 20.6483 15.4173 22.8049
2 4.61264 12.2092 4.94678
1 23.4098 6.31258 24.0131
3 14.676 25.1928 23.7013
1 6.04154 14.5704 6.14808
3 22.5319 23.9534 10.813
3 5.4206 10.7541 14.2817
2 24.8868 22.317 15.4503
1 3.73536 22.2772 3.8334
3 4.9732 9.53502 3.5921
2 9.29989 5.13642 24.1588
2 3.07345 12.673 14.6249
2 1.28726 5.26756 15.2893
3 5.93117 23.7034 19.2003
1 21.5282 1.82666 27.3541
2 2.26664 15.883 17.5317
2 1.46875 4.09865 25.0243
2 5.56561 11.0644 20.8466
2 11.2523 28.4317 0.647395
2 16.7373 25.0733 25.9315
3 27.5853 17.7349 13.971
3 24.1996 0.518271 16.1468
1 27.4945 21.5873 25.9906
2 2.17049 4.75397 19.1947
3 28.2235 22.9465 11.401
2 6.89128 2.76067 4.77633
3 18.9792 16.1585 25.202
2 7.54829 8.12509 26.4825
2 21.2704 1.82137 7.80559
2 21.4656 4.805 4.86005
1 10.5857 13.9925 21.7647
2 16.8941 7.08149 25.2257
2 18.9641 20.7944 20.21
3 19.3737 6.75728 3.88842
2 1.48153 18.6899 5.59756
2 25.5355 5.4289 15.8324
2 8.66776 21.6026 27.8094
3 8.25405 24.4918 13.7886
2 22.138 11.0096 15.4427
3 15.5591 27.3663 16.1856
1 21.109 26.3741 22.4761
2 12.5919 12.9751 4.64554
2 28.1834 18.4881 20.8496
2 18.6862 18.7353 23.4931
2 23.7013 3.73556 27.4024
3 24.4825 9.90696 6.29586
1 5.26367 25.7787 0.268302
1 15.7801 19.8619 0.327851
2 21.8464 18.0342 20.3076
1 4.49858 19.6067 24.7454
1 13.2224 21.7434 1.34156
2 28.1893 15.2819 7.69444
3 7.28901 8.81331 10.4341
2 14.304 13.427 18.0681
2 27.9978 21.4049 8.53448
2 11.6803 23.883 0.437735
3 10.1355 6.46087 26.6898
2 18.9112 18.2463 8.61186
2 13.5808 22.4296 23.9578
2 20.5584 6.05158 12.2379
2 1.22499 7.14641 3.59591
2 8.5002 1.64334 22.9594
2 17.089 14.4723 8.8133
2 11.8116 19.9908 10.1251
2 26.1904 1.93035 18.0315
2 11.0478 2.29412 12.328
2 13.8151 19.0949 17.3588
2 4.64433 7.24514 10.0926
1 18.2883 1.83512 25.2289
2 17.9319 4.33391 22.1998
2 18.0928 5.54361 14.7549
2 1.85771 25.0168 23.3992
2 6.08619 13.4716 17.4021
1 20.4594 3.22828 20.645
2 7.51585 9.0565 7.41389
2 10.2517 19.9905 24.3305
2 11.2774 9.67445 16.6864
1 1.66054 16.0871 10.633
2 3.18424 20.0119 18.2398
1 16.1123 19.5636 22.5323
2 4.83726 6.37958 16.3776
3 13.6757 1.42674 11.2842
2 5.00681 15.2558 25.823
2 17.0308 7.4306 12.0501
1 9.65916 14.5056 10.3282
2 19.9565 27.7612 20.0785
2 24.4267 5.09037 11.4359
2 18.2619 21.1712 6.48173
2 5.89309 20.4428 10.9046
2 1.49998 25.6361 2.07673
2 26.2979 18.9162 3.3347
1 18.6148 19.6546 11.4883
2 11.8824 16.5937 12.2271
2 6.09005 28.4202 20.5835
3 23.6181 17.5384 4.3192
2 11.914 10.1775 20.3449
2 24.3661 15.9024 7.13605
2 26.8832 25.7112 22.0218
1 3.56236 3.7972 16.2214
2 13.7899 7.40149 7.13025
2 18.9857 11.6935 18.3825
3 22.1168 10.666 3.85792
3 16.808 8.07948 15.7999
3 4.92176 9.05337 18.8835
1 26.168 3.01441 10.9108
1 15.764 1.44412 19.4679
1 20.5513 14.8174 16.8607
1 10.488 17.5855 16.6984
2 19.8218 3.86785 26.2965
1 7.07141 20.6587 13.459
2 11.5801 24.0525 8.03041
2 27.5713 13.3997 0.866674
1 27.5043 17.0052 5.62612
2 15.3309 24.2095 7.51818
2 12.3245 17.1186 4.96419
2 21.1192 23.5737 13.3969
2 8.58609 12.3886 5.60881
2 24.8623 11.4029 3.6642
2 15.8563 10.6346 27.1174
1 21.6311 14.0743 5.38073
1 12.7744 15.0801 2.87686
3 19.6144 0.571566 17.0298
3 24.8373 19.0852 0.67429
3 12.0073 5.28481 2.32278
2 6.85505 11.7705 23.9468
2 3.49043 15.188 22.1702
3 6.73568 23.7362 9.85357
1 14.6672 11.4575 20.9074
2 16.1295 27.831 6.40745
3 21.0785 25.3403 2.03687
1 3.09129 6.4821 25.1349
3 17.9738 22.8809 9.33903
2 2.82797 18.4301 9.82998
2 26.2591 27.7355 2.23704
2 6.72681 22.1173 16.1728
1 18.9055 17.733 20.3407
2 18.3026 18.3289 17.5859
2 16.8898 13.5105 15.7256
2 9.05043 22.8762 11.4323
3 11.4445 23.294 21.9685
2 17.26 22.5853 22.8903
1 9.43379 5.91163 14.6568
3 12.1537 8.39399 22.6354
1 9.58051 21.788 17.0868
2 11.744 9.49356 26.4162
2 25.3647 28.1294 26.3803
1 5.91776 2.79837 28.0458
1 7.5611 22.3054 22.4292
2 18.8967 12.718 24.8579
2 1.63141 4.51407 21.9612
2 7.96752 16.6118 15.998
3 13.3201 8.62113 11.5087
3 22.8162 5.03088 1.80149
2 2.6896 22.6052 11.4871
3 10.925 26.346 2.80218
2 28.0344 24.5507 13.8673
2 23.9909 25.1106 3.2048
3 2.85753 24.6986 13.7764
3 22.7228 9.79037 26.143
1 6.552 13.4705 3.39965
2 10.6571 12.0608 23.5677
2 21.3799 6.51726 8.42715
3 26.947 24.4542 2.84242
2 6.40522 2.51502 25.4634
2 10.8873 24.0169 4.85458
2 27.6241 8.26842 10.6197
2 14.7591 10.4427 23.5496
3 11.2437 22.4027 25.7839
2 15.533 14.6976 3.35774
2 24.6892 25.7503 12.2774
1 12.3135 17.7566 14.6386
2 15.8441 22.8907 3.41166
2 23.081 12.0071 11.4272
1 7.733 19.8734 25.9538
2 21.2147 15.0217 8.72503
2 24.1452 8.82962 9.19201
1 24.3727 13.6428 5.34389
3 17.1672 1.84015 8.36566
3 9.05609 10.3432 25.469
2 13.8547 18.8943 24.0749
2 17.2991 24.5351 11.6661
1 24.9472 0.644424 20.7279
2 10.2607 1.7727 7.80493
1 27.8783 22.2212 15.3636
3 13.2563 25.8601 6.06666
1 18.8751 16.0456 10.364
2 2.78929 25.1151 5.09283
2 16.1743 26.9575 19.4895
2 27.9613 4.50236 8.6669
1 28.4548 18.1729 8.37694
2 18.2044 11.792 1.03331
3 8.06877 19.6994 9.15893
2 26.9189 7.49354 6.43827
2 4.73776 15.7016 3.4662
2 2.99613 3.36617 10.6752
1 9.21319 25.4229 6.92195
3 28.0207 11.9254 26.5076
1 0.967508 19.6097 2.33603
2 24.7687 28.0759 6.30691
1 2.40321 23.9088 9.08593
2 10.3089 16.3637 23.1179
2 7.012 24.8696 26.5295
1 25.6653 9.93175 11.3583
1 21.6662 17.133 17.72
3 20.2683 20.0719 4.28151
2 22.8964 20.2552 5.73421
3 25.0479 21.3453 8.28705
2 19.9984 9.65219 26.9435
2 9.33601 14.7494 2.64509
1 1.56114 23.1651 6.6122
2 22.1882 11.4156 6.88717
3 16.2892 8.88019 5.57643
2 11.0822 20.5793 2.96086
2 11.7481 14.7363 25.6526
2 15.3357 3.26923 1.65006
2 14.5255 21.236 20.9964
3 5.43945 6.8238 6.90365
2 7.86773 10.2958 2.37141
3 4.70829 14.962 13.8381
1 18.5477 25.4953 19.4138
1 12.5754 4.38851 18.9177
1 3.24445 22.946 22.1533
2 12.2226 22.6052 18.697
1 12.3867 18.6482 7.4046
2 18.013 2.7408 18.4314
2 14.3119 2.92668 8.66376
3 26.0447 8.21875 27.9683
2 25.7549 5.31852 21.0015
2 26.9692 25.1212 27.9729
2 14.3623 19.0266 2.67448
3 5.28182 24.115 6.38385
1 10.3039 28.309 10.2293
2 27.3279 17.71 10.9293
2 2.85649 25.8738 27.0335
2 5.08362 27.5784 24.4716
2 22.0722 18.6613 2.00126
2 24.415 16.8171 23.1317
3 12.1302 28.4241 18.8862
2 27.9179 20.6193 13.1701
2 14.1772 1.75879 17.1763
3 19.5367 12.6608 15.1269
1 24.9993 22.9559 18.0946
2 20.7898 17.9153 12.1582
2 11.8479 4.28323 14.4715
2 27.7375 9.07594 14.8717
2 9.72201 27.0235 20.0667
1 14.4932 8.40805 26.069
3 15.8736 16.6378 1.25638
2 20.9517 2.41369 11.972
2 10.6568 0.342299 16.2089
2 22.8167 14.7445 14.725
1 24.6595 26.3584 0.498737
3 25.9591 8.65621 17.0662
3 16.3266 3.48064 15.956
3 26.9361 2.68084 15.1673
2 21.4758 5.84368 19.9278
2 2.9112 22.1723 15.2006
1 21.0377 4.0037 23.6164
2 28.1507 9.78894 1.02955
1 6.79766 5.37262 25.3795
2 4.56965 5.44144 27.2394
3 24.1359 4.05583 18.4246
2 20.2086 23.0365 3.85005
2 24.786 1.83895 13.354
2 3.77559 21.41 6.4349
1 0.681925 24.7135 20.3341
2 13.4833 25.6699 17.3459
2 27.5505 3.74969 4.67402
1 14.0623 1.69333 27.6128
1 2.00193 13.3212 6.30756
1 2.26583 18.3846 16.2555
3 27.5564 16.6521 18.3185
1 27.191 8.74539 3.45188
2 24.3263 16.8813 18.0624
2 11.5396 12.4798 13.5059
2 6.08423 6.75905 3.99186
2 0.876734 28.3731 24.9653
1 23.1187 28.0231 12.1877
2 27.7528 23.8004 17.933
2 23.6173 24.6952 8.02249
2 5.33608 18.7888 14.5143
2 2.67981 11.8057 27.1931
2 26.9257 10.0262 21.6495
3 2.48579 13.2581 1.90673
2 24.7561 22.1412 11.2234
1 5.1232 16.019 16.7275
3 5.67429 8.16835 22.3958
2 18.8243 16.5837 15.1517
2 15.8489 3.14252 25.9893
2 10.2555 28.059 5.03885
3 8.10923 0.386572 18.3192
2 4.22531 14.6196 11.0599
2 10.181 13.0436 17.5291
1 7.39515 15.7894 24.639
2 24.2809 0.358588 9.63341
1 21.7309 17.9411 23.1824
1 10.567 14.7849 28.2006
2 13.9084 27.0791 3.22203
1 21.8639 17.3249 14.8524
2 8.93049 11.0499 11.1842
2 18.6646 9.80408 14.5647
2 19.3549 25.162 7.81581
2 23.8656 18.5516 10.0828
3 26.3294 2.53697 7.32484
3 24.4908 12.9757 28.275
2 18.3194 7.37187 18.3433
2 15.6158 6.39922 3.81709
2 6.82244 28.0009 14.6323
1 17.7353 0.739474 21.3793
3 13.7408 22.3369 9.15882
2 20.7712 23.7268 18.6005
2 20.83 16.6591 4.96246
3 5.61975 15.7768 0.523831
2 4.65861 25.4642 8.89524
2 22.7804 27.6198 18.5
3 2.67418 19.7072 13.7591
2 5.46891 18.8811 27.4073
2 12.199 4.34616 27.8516
1 10.8398 24.936 10.8558
3 26.9992 25.9948 25.1432
2 23.1829 2.80554 20.9398
1 26.9059 15.851 2.41984
3 17.628 23.8973 5.47426
2 24.8487 15.2395 10.8393
1 21.9477 23.3385 25.1261
3 8.49016 11.0552 21.8091
2 27.8424 19.0164 16.676
2 27.56 11.9899 12.3422
2 8.18072 3.67369 16.2195
2 8.48455 26.1607 9.51841
1 18.8467 24.3803 24.2922
3 23.6112 15.0812 20.8856
1 1.97409 2.56626 8.20683
2 25.6601 26.3376 16.2373
2 16.5901 15.6874 23.468
2 6.60579 17.2449 8.79296
3 16.8542 26.4176 8.90317
1 12.127 10.9476 10.6199
2 25.3377 20.7178 19.427
2 1.40761 1.39883 16.1855
3 14.5545 15.8159 6.02386
2 2.09019 16.6549 13.3925
1 2.22717 3.73283 27.7095
1 28.3236 9.92246 8.06909
1 15.2371 5.34609 27.6487
2 1.32913 0.900735 5.27797
3 3.12547 13.314 24.5742
3 9.23921 26.5234 27.732
2 1.90713 7.57949 8.30867
2 3.50878 25.9685 16.3378
3 11.4205 21.5045 12.6846
2 3.8564 19.609 2.73475
3 13.7256 22.7128 16.2412
1 11.9352 14.3036 15.7118
2 18.1772 6.81161 6.66576
3 15.3464 5.49749 23.446
2 22.4203 13.4516 18.6074
2 8.10511 5.12406 12.0149
2 21.8522 19.846 17.0392
3 18.1679 22.506 1.48154
1 10.8567 3.10227 16.7681
1 0.702769 5.75917 5.91621
2 2.10684 21.8655 25.5613
1 5.65031 4.7925 10.3259
2 24.2492 18.2559 14.0134
1 2.60041 1.72533 19.042
3 20.4315 9.46546 17.3615
2 11.3783 9.69489 8.32245
1 4.57692 6.74538 13.5526
3 13.3912 8.13315 18.8231
3 21.9349 15.9578 0.595183
1 12.0339 9.45497 1.93898
1 25.3562 22.2666 22.102
2 24.0388 24.5667 20.3655
3 28.0969 12.1211 15.2102
2 12.4446 12.5754 0.759686
2 24.9204 23.9585 24.6019
3 21.217 21.2075 28.217
1 2.76326 12.3469 11.8156
1 11.1959 0.963156 22.7512
2 14.34 20.5141 6.67173
1 0.943777 19.8619 23.0987
2 17.7297 3.00045 5.60639
1 24.4713 14.2058 16.9216
2 26.9265 1.60868 22.1743
2 17.7386 1.18272 14.8817
2 27.5757 2.61975 0.272291
1 3.28224 6.57943 1.5084
3 13.0685 0.472915 7.20953
2 10.8315 23.5042 14.9591
1 20.0495 1.14169 5.43073
2 20.8661 9.90177 11.1474
2 2.96829 8.29146 21.2133
2 27.0572 11.0343 18.218
2 9.99007 27.9375 25.0334
1 17.0158 15.8546 17.1251
1 12.0224 26.5249 14.6332
3 27.3016 13.0465 22.3063
2 22.3566 23.8014 28.0097
1 21.9355 4.47898 10.2995
2 7.83169 17.9263 2.25655
1 4.27222 27.7235 5.26973
2 1.83433 17.7285 24.673
1 12.3228 6.71695 4.88882
2 15.1789 10.1267 17.3936
2 13.382 3.1249 5.22832
2 21.0796 7.56247 1.53199
2 7.83288 16.7308 5.98596
2 7.85013 22.9073 7.21848
3 19.2178 21.304 17.1906
2 26.0935 13.9055 19.6147
2 24.3069 4.52053 7.51057
3 21.1288 22.7374 7.11515
2 18.769 25.2413 0.278849
2 21.8132 27.3107 14.8523
1 9.61428 14.7691 14.2469
1 9.72646 2.47146 28.2229
2 27.6065 19.4371 27.6135
2 18.0531 4.46106 9.62845
2 20.3725 3.20445 1.44663
1 23.3364 24.9435 14.5417
2 10.602 2.43863 19.762
2 4.31578 9.08312 25.0755
2 11.7158 6.13743 20.8683
3 16.2618 8.58686 1.79015
3 21.9839 17.6772 7.92791
2 2.15286 11.911 8.57291
3 27.1479 17.5922 25.2039
2 2.9199 23.4572 19.2599
2 7.46658 13.6609 8.80232
3 6.44991 20.5533 1.39689
2 5.73272 17.0032 19.4091
3 24.5759 11.0546 20.0915
3 3.01548 17.6101 20.2115
2 18.3611 26.1672 16.6427
2 6.90582 6.89275 19.8155
1 9.54843 23.1365 2.25711
2 4.65686 3.42931 13.7273
3 22.8014 0.729107 25.0834
3 15.7777 22.2985 13.0921
2 24.7537 16.1631 27.5278
3 16.5515 10.4765 11.8734
2 26.3615 6.67512 24.3597
2 1.00874 27.4119 19.3171
1 12.0014 13.6614 19.363
1 14.3828 16.3499 17.985
3 4.98472 13.8615 20.0646
3 12.4817 7.25885 15.309
2 17.9734 19.6061 2.01402
2 25.9115 22.0137 1.79421
2 3.58902 19.8462 21.9872
1 6.01072 27.2865 11.9987
2 20.7627 26.7409 4.91316
2 14.8401 10.2517 9.60739
3 5.15593 17.8247 11.6426
1 0.625863 7.02708 13.217
2 27.1095 15.1583 15.625
2 13.824 20.1065 13.7234
1 8.39759 14.903 18.349
2 25.8478 18.6737 7.32669
1 1.96371 1.096 2.50593
1 17.4543 1.73694 0.476803
3 4.6236 10.8091 7.66208
2 22.4786 20.7005 22.778
3 10.2666 19.1781 0.596896
2 16.0324 20.897 10.5205
1 16.9968 27.6845 25.1002
2 23.7149 27.1318 22.858
3 4.31159 18.2111 7.25098
2 12.1156 5.70723 9.61245
2 7.33824 9.82795 16.924
2 16.9302 18.1875 26.7403
1 24.9004 1.62973 0.898014
2 5.76669 24.6228 12.609
2 17.0439 0.62128 11.1179
3 8.74648 19.6023 4.60991
2 10.2243 16.9004 8.78147
3 9.07584 8.61955 18.9064
2 7.42423 12.8883 14.2821
2 16.2842 23.2371 17.5561
1 23.0588 24.9899 17.6826
3 9.50007 10.3331 14.5555
2 6.56119 18.0204 23.2442
2 14.6128 5.81619 17.5963
3 19.3455 12.702 8.98824
1 6.84184 12.784 11.4051
1 7.38367 7.12574 15.9608
2 17.982 26.4779 22.8005
2 14.3088 27.6048 13.4988
1 16.2982 12.9863 23.8605
3 12.7549 17.2332 21.7905
3 24.6801 19.5847 16.4953
2 9.24169 8.45579 23.0597
3 19.3544 7.09791 21.4995
2 9.62631 19.6065 14.0723
2 22.414 28.2134 1.15302
1 7.061 7.51436 0.826033
3 27.5549 20.7295 5.56917
2 0.827634 25.7812 10.2938
2 9.38301 20.1809 21.6586
1 20.0769 9.25671 6.56944
2 3.507 1.14745 27.8251
3 27.6918 15.9093 27.9633
3 18.0102 3.15695 12.3903
2 19.4741 21.7077 25.8572
2 9.05273 23.0162 19.5515
2 11.4065 13.2557 8.31865
2 21.8888 9.53695 19.7787
3 13.5825 12.0086 25.7443
2 14.5681 10.0219 13.9164
2 8.05636 4.85869 28.1259
3 20.167 5.08584 17.2333
1 1.04549 10.2757 19.7163
1 14.4313 24.241 19.6588
2 26.3358 11.7508 8.90371
2 25.2624 12.4035 25.5405
2 2.72165 16.0755 0.259582
3 8.43881 17.2579 21.1352
1 26.2135 6.29412 13.3526
2 7.61852 1.48121 10.4917
2 11.5668 16.3177 18.9805
3 9.77331 7.39914 8.61638
2 21.5624 13.3895 27.2751
3 22.8832 15.113 25.0571
2 0.603583 14.855 4.0412
3 1.92442 23.551 28.2674
1 10.2422 10.8214 0.461954
3 17.8089 4.71141 2.68402
1 3.31482 1.63013 25.0053
3 6.03145 19.4658 17.9259
3 23.5043 22.114 3.33774
1 21.7247 2.23054 3.65643
3 25.1369 5.85252 4.94353
3 15.694 1.3115 4.01162
2 2.87634 10.4653 17.4582
2 15.335 7.72526 21.4287
2 0.978793 6.50848 28.0742
2 20.2145 1.30167 23.2195
2 13.5856 14.0111 22.2194
3 10.7226 14.6783 5.95355
3 11.4071 17.6366 25.9545
2 18.7978 15.154 19.2667
1 2.27435 16.9608 2.99328
2 3.82019 15.3102 7.67382
3 25.6193 9.40515 24.1693
1 20.4357 6.85073 27.0815
2 28.1273 0.78939 9.13011
2 23.8432 3.42313 24.3046
2 5.6424 24.3233 21.9549
3 16.1734 20.1627 18.8371
1 24.9497 13.2879 12.9525
3 18.5753 15.8036 6.78686
3 15.4169 5.64536 10.2733
2 15.9794 22.3995 27.5527
1 17.9309 10.0423 25.1244
3 19.2403 7.69507 10.03
1 4.50908 24.7862 25.0932
2 19.2823 13.2667 12.0485
3 28.1988 21.0993 19.3401
2 3.39797 8.72747 6.02583
2 7.8338 16.0733 12.3082
3 15.6884 5.20142 6.46332
3 12.3472 19.6288 19.947
3 11.9607 1.58465 3.25993
2 25.455 22.8395 5.55765
3 16.5636 18.736 14.7616
1 19.7285 0.960869 10.1191
1 10.224 12.2672 3.18802
1 14.201 12.8176 14.5596
2 13.1729 27.2444 9.74154
2 23.0317 8.99321 22.8181
3 26.1572 26.3206 9.02522
1 13.8604 18.4364 11.4141
3 22.1559 20.9145 19.963
2 10.2517 20.4435 6.97201
3 21.8057 14.7589 11.7862
1 9.47002 2.73959 25.3456
2 7.91037 25.5773 2.05392
2 28.004 3.96366 12.6332
2 4.86485 5.54352 23.2784
2 10.5 7.92582 13.0078
2 2.79927 8.75773 13.656
2 23.1695 7.0487 26.6313
3 7.4952 28.3718 3.55761
1 12.7488 0.247202 25.6354
3 2.81367 10.6632 23.1064
1 23.789 13.2913 8.95359
2 14.495 10.5459 3.12472
2 16.7481 17.6614 12.1067
1 0.42148 27.7349 22.1986
2 7.04027 22.0968 3.98419
1 27.6994 3.37089 20.2834
2 14.1886 3.50021 20.8993
2 12.7777 25.4911 25.8762
2 18.9996 9.93252 22.2934
2 13.7332 7.53561 0.834786
2 14.5245 16.9484 8.81513
2 7.7541 14.2188 21.2071
2 19.2428 12.9439 5.74769
2 18.7894 9.76971 4.12534
2 7.52937 0.597316 0.210507
3 25.266 22.6919 27.2162
3 2.41739 19.1318 27.586
3 22.6932 20.2136 12.1231
3 5.60692 2.95228 21.231
2 9.27326 19.4444 18.4375
2 15.6086 14.3886 27.192
2 21.1472 23.7872 22.3548
2 6.06935 20.9181 20.4358
2 17.5802 6.27594 0.277786
2 12.2924 17.0064 0.635967
2 15.2134 3.77855 12.7259
2 12.9567 6.38829 24.8541
2 18.4127 20.8988 14.0844
3 1.55282 27.1159 7.54805
1 16.1744 18.9746 7.96253
1 28.1693 5.21005 2.2921
2 8.09425 4.09917 20.4204
2 20.673 6.86285 24.0265
2 17.1257 12.6689 21.2429
1 21.1573 8.72429 13.8805
3 27.9694 7.10555 21.7171
2 10.1936 7.35691 1.60584
2 6.08555 21.6976 24.7678
2 27.6104 25.3676 6.52638
2 23.9542 10.0259 0.649294
2 1.5971 13.0296 20.6187
2 14.3273 15.9539 15.0523
1 27.937 5.04408 17.5852
2 8.40602 12.6434 27.5474
2 13.5604 23.8425 11.7665
2 14.7593 28.2125 23.6822
2 5.27218 12.897 0.891309
2 18.1509 0.315621 2.7178
2 15.6966 17.5056 20.4834
729
Atoms. Timestep: 121000
3 4.09978 0.344586 15.0185
2 9.52227 24.139 23.7386
2 7.22888 4.33212 8.02758
1 19.7605 21.3313 22.9143
2 20.8402 26.5043 10.8608
2 21.6999 3.1351 16.4996
2 21.5444 17.2975 26.0019
2 4.83717 10.9846 11.277
2 21.7876 7.10759 16.2869
2 24.1523 2.54007 3.22289
3 26.7224 2.16542 25.65
2 4.63789 23.2792 0.965906
2 8.9163 16.7417 26.8455
1 23.6204 27.714 3.94109
3 16.5123 25.9167 1.71556
1 15.5883 14.3491 20.6992
1 16.8116 14.5743 13.4911
3 28.3135 27.959 0.626679
1 5.90517 18.44 4.31588
3 19.3188 26.125 13.3355
2 0.604699 14.3792 24.5811
2 6.89132 26.7645 5.60486
2 0.849267 22.0977 3.06489
3 10.1299 24.8818 17.8644
2 2.99862 3.55102 2.30755
2 9.92729 3.09606 2.89496
2 7.29145 25.7543 16.9362
2 18.2335 9.59395 8.31132
3 7.59039 2.37294 13.4664
1 22.881 7.4929 11.3421
1 2.21678 8.18462 16.0307
1 9.18268 11.2206 8.3977
1 15.1599 12.3484 1.4518
1 17.2343 20.5057 25.6558
2 14.7509 13.5087 12.0699
2 20.9922 25.7518 25.2658
1 26.68 13.7475 6.11296
1 18.8624 14.2175 3.14284
3 25.7561 27.2795 19.1676
1 27.2304 13.8153 10.1261
1 18.1345 13.7641 28.007
2 19.1996 16.0104 0.931359
2 10.4169 6.52491 17.0456
3 20.6668 11.932 20.8375
2 24.4543 8.82525 13.2513
2 2.58774 1.64587 21.8722
3 17.0081 9.99372 19.6924
2 15.4744 27.8169 27.9032
3 7.03573 1.39372 7.10447
2 4.98862 2.10022 17.8268
2 11.6715 3.13472 24.2621
2 3.42187 4.49741 6.32862
1 2.3296 9.06757 27.2112
2 6.61163 8.26307 13.5397
2 20.5757 21.6214 10.3606
3 9.55339 3.65081 10.0905
3 8.93953 7.99832 4.71786
2 2.73602 10.3306 2.6484
2 24.5292 15.0461 2.68613
3 3.62931 26.9994 21.8556
2 0.555164 8.96519 24.6876
1 16.2184 20.3088 4.32504
2 23.5009 20.1854 26.3085
3 7.43867 27.2021 22.8707
2 28.4036 7.79307 18.4052
2 28.2173 22.3972 21.8096
2 25.147 11.9036 15.6673
2 19.2071 28.0667 27.0453
2 4.43203 8.92811 0.927717
2 10.5441 26.7276 12.8214
2 11.5841 9.32669 4.67433
2 3.10691 27.6537 12.4841
1 3.88368 2.48343 4.70255
2 4.7701 27.8441 2.4196
2 12.8291 20.5802 27.2973
2 16.8093 17.6619 5.34772
1 15.2623 16.8985 25.6437
1 9.54643 14.0491 24.9667
2 26.4706 20.1144 24.1032
2 4.10172 0.986635 7.64661
1 26.014 6.69569 9.15963
3 15.9144 5.49406 19.5603
3 22.2594 27.1485 7.90392
2 25.813 6.76675 2.04033
2 12.6252 25.5302 21.4014
3 10.1805 17.8461 11.5054
1 1.43915 5.29364 11.1025
2 22.5983 7.98411 4.93502
2 28.31 11.6678 5.06437
2 10.3037 5.73193 6.17672
1 19.7499 4.31804 7.11601
3 0.645424 26.8105 16.5952
2 21.5269 13.3306 2.68476
2 24.0864 12.6537 22.5088
2 20.985 15.174 22.8386
2 4.3231 12.3671 5.23137
1 22.7919 6.60126 23.5818
3 14.1547 25.2591 24.1059
1 6.12674 14.6173 6.18812
3 22.7501 23.8634 11.2136
3 4.80068 10.6045 14.2324
2 24.9805 22.1929 15.1972
1 3.553 22.4507 3.73604
3 5.14915 9.57144 4.19425
2 9.27955 5.44419 24.5304
2 2.95486 13.0924 14.4118
2 1.14927 5.53448 15.3775
3 6.07712 23.5569 18.9788
1 21.2005 1.68381 27.3295
2 2.41256 15.7524 17.8933
2 0.99284 4.37517 24.837
2 5.4748 10.5982 21.0228
2 11.5192 0.382913 0.476066
2 16.4551 24.8266 26.0515
3 27.6106 17.8073 13.8315
3 23.8666 0.729383 16.3745
1 27.658 21.4253 26.1294
2 2.67013 4.90401 18.9127
3 28.0983 23.2296 11.2637
2 6.60226 2.71902 4.42713
3 19.2043 15.867 24.9571
2 7.4194 8.49042 26.9481
2 20.979 1.70882 7.7421
2 21.4227 4.61395 5.04614
1 11.0436 14.0047 21.7497
2 16.9774 7.11369 25.5485
2 19.2903 20.7613 20.1959
3 19.756 6.83386 3.83285
2 1.80973 18.6179 5.74261
2 25.3464 5.62434 15.9752
2 8.98537 21.7426 28.0888
3 8.32701 24.4523 14.2592
2 22.1346 10.9678 15.5901
3 15.8993 27.5799 16.815
1 20.6512 26.41 22.5959
2 12.4753 12.8613 4.77031
2 0.234942 18.3905 20.933
2 18.7746 18.2919 23.2223
2 23.6446 3.55861 27.3943
3 24.3506 9.82304 6.30539
1 5.48848 25.8048 0.295901
1 15.901 19.249 0.470491
2 21.6568 17.7954 20.2372
1 4.5369 19.8927 24.7188
1 13.523 21.8656 1.413
2 0.168997 15.2657 7.69603
3 7.27834 8.66496 10.4385
2 14.2199 13.6112 18.4037
2 28.182 21.6259 8.73245
2 11.8638 24.1092 0.742127
3 9.87013 6.69368 27.1589
2 18.7116 18.216 8.72341
2 13.4399 22.2994 24.1115
2 20.6981 5.99297 12.2661
2 1.33272 6.93323 3.80989
2 8.11354 2.20879 22.7283
2 17.0755 13.9487 8.87995
2 11.9171 20.1475 10.2127
2 25.8258 2.27336 18.063
2 10.9551 2.31014 12.3898
2 13.9578 19.1901 17.1719
2 4.87666 6.73092 10.39
1 18.1358 1.67033 25.2596
2 17.7128 3.8858 22.1742
2 18.1062 5.5807 14.942
2 2.06422 25.1155 23.1811
2 6.07789 13.4328 17.6736
1 20.4077 3.21492 20.4977
2 7.21045 9.27769 7.42374
2 10.2796 20.5092 24.646
2 11.6747 10.0116 16.5464
1 1.81187 16.3902 10.92
2 3.37457 20.1225 18.1377
1 16.3391 19.5396 22.3064
2 4.5781 6.42655 16.2735
3 13.9668 1.31486 11.5408
2 5.16937 15.2927 25.9033
2 17.0383 7.85936 12.2266
1 9.71465 14.4256 10.1849
2 19.9333 27.6705 20.1335
2 24.512 5.30151 11.2481
2 18.2878 21.4032 6.65016
2 5.67985 21.0465 10.9396
2 1.3039 25.7197 2.31856
2 26.4833 18.5795 3.18431
1 18.6396 19.5 11.4796
2 12.3813 16.2564 12.457
2 6.20579 28.1888 20.2933
3 23.7964 17.5548 4.66804
2 11.7298 10.4027 20.3243
2 24.1892 15.6399 7.15399
2 26.5711 26.2595 21.9786
1 3.3693 3.99626 15.9644
2 14.2452 7.30516 7.50227
2 18.9361 11.9822 18.4928
3 21.9351 10.3041 3.12574
3 16.3016 7.91084 15.7396
3 4.91749 8.84782 18.6216
1 25.8016 2.80315 11.1103
1 15.5535 2.14187 19.8038
1 20.4212 15.2016 17.631
1 10.7779 16.892 16.5482
2 19.5005 3.87069 26.3079
1 7.31811 20.6563 13.5546
2 11.5161 23.6952 8.25891
2 27.8408 13.141 0.787418
1 27.8121 16.912 5.46588
2 15.428 24.2365 7.16021
2 12.4871 16.9101 5.25626
2 20.8457 23.7117 13.6851
2 8.65689 12.2937 5.46463
2 24.6558 11.1552 3.68373
2 15.9571 10.522 27.3468
1 21.7368 13.8373 5.58868
1 12.6088 15.0622 3.09377
3 19.7796 0.506426 16.9251
3 24.7626 18.7683 0.314814
3 11.7166 5.1801 2.33825
2 6.75644 12.0952 24.0647
2 3.95001 15.8913 22.2374
3 6.84852 23.8871 9.93814
1 14.2395 11.498 21.5674
2 15.7791 27.9942 6.62775
3 21.1071 25.3713 2.16435
1 3.01665 6.69893 24.8572
3 18.0513 22.7812 9.24192
2 3.13423 18.76 9.70274
2 26.217 27.8783 2.63465
2 7.28769 22.2023 15.9466
1 18.8414 17.7694 20.3887
2 18.4227 18.4182 17.5813
2 16.7244 12.9004 15.912
2 9.37788 22.7456 11.4605
3 11.5451 22.8717 21.97
2 17.0549 22.1089 23.1789
1 9.17647 5.92804 14.5944
3 12.2794 8.48337 22.6654
1 9.75178 21.2871 16.3426
2 11.4404 9.36926 26.2117
2 25.1369 28.0789 26.444
1 5.51078 3.03073 28.1197
1 7.74254 22.365 22.5533
2 18.9227 12.7206 25.5605
2 1.41236 4.63615 21.6662
2 8.1787 16.5927 15.8543
3 13.1213 8.44799 11.4129
3 22.7223 4.54776 1.59869
2 2.77632 22.9192 11.0542
3 11.2953 26.0063 2.70329
2 28.216 24.7252 13.9534
2 23.9696 24.8846 3.4494
3 2.86878 24.9895 13.7713
3 22.6795 10.0534 26.3628
1 7.09722 13.9991 3.824
2 10.8348 11.9915 23.4912
2 21.3259 6.58986 8.17536
3 27.1227 24.3457 3.55198
2 6.16491 2.74772 25.4633
2 10.8953 23.5772 4.91949
2 27.8283 8.6695 10.201
2 14.7018 10.0455 23.9061
3 11.4735 23.0415 26.1098
2 15.491 14.3619 3.34359
2 24.5901 25.8093 12.7173
1 12.4049 18.0198 14.8129
2 16.3437 22.9887 3.37123
2 23.0476 11.9591 11.4661
1 7.87973 19.7411 25.6016
2 20.9249 14.7182 8.91933
2 23.855 8.51379 9.00348
1 24.3168 13.6924 5.08869
3 16.9864 2.02502 8.30264
3 8.76993 10.4996 25.4132
2 14.3739 18.9504 24.1272
2 17.3729 24.5146 11.6849
1 24.4334 0.961675 20.8646
2 10.1788 1.73662 7.94748
1 28.1037 22.2588 15.2385
3 13.4319 26.1276 6.17498
1 18.4769 15.9139 10.3488
2 3.03996 25.2643 4.91489
2 15.8902 27.053 19.6478
2 27.6275 4.50093 8.93644
1 0.535289 18.7504 8.51841
2 17.956 11.9777 1.6788
3 8.23269 19.8402 9.88319
2 26.5769 7.75594 6.37637
2 4.72206 16.0909 3.8503
2 3.06414 2.97196 10.2083
1 9.66698 25.1214 6.87671
3 0.128347 11.7641 26.4835
1 0.59646 19.461 1.98084
2 24.8387 27.7603 6.4746
1 2.48139 23.9884 8.61843
2 10.396 16.6295 23.0321
2 7.03987 25.5162 26.1402
1 25.4897 10.2238 10.8191
1 21.4026 17.522 17.6184
3 20.0259 19.8076 4.61383
2 22.4416 19.9584 6.21658
3 24.6119 21.012 8.46748
2 19.8037 9.5004 27.1393
2 9.59123 15.1427 2.81409
1 1.19814 22.9225 6.46005
2 22.004 11.4458 7.09898
3 16.3071 8.81525 5.94316
2 11.3968 20.6848 2.90607
2 12.2175 14.7472 25.7852
2 15.0472 3.05456 1.35285
2 14.1455 20.8757 20.9883
3 5.33009 6.93107 7.16125
2 7.57796 10.1569 2.62171
3 4.72906 15.413 14.0294
1 18.6195 25.224 19.1672
1 12.1117 4.60494 19.1229
1 3.63453 23.0866 21.946
2 12.196 22.5461 18.7488
1 12.4378 18.7914 7.59124
2 17.7707 3.11449 18.6792
2 14.34 3.2016 8.90575
3 26.1952 8.33274 27.4117
2 26.2284 5.28629 20.141
2 26.9776 24.9999 28.018
2 14.3573 19.3172 2.75187
3 5.41225 24.1464 6.14465
1 10.3843 28.3653 10.3375
2 27.4451 17.3269 10.9013
2 2.92795 25.9714 27.0181
2 4.99133 27.6992 24.3411
2 22.2392 18.8915 2.28091
2 24.6579 16.9127 22.8046
3 12.1873 28.0655 18.6939
2 28.0811 20.5421 12.8099
2 13.993 1.79363 17.3163
3 19.642 12.9514 15.1048
1 25.1406 23.3458 17.6669
2 20.6247 17.6321 12.4915
2 11.895 4.73995 14.0898
2 27.8396 9.04276 14.9747
2 9.80226 26.8664 20.1141
1 14.4141 8.27048 26.1499
3 15.6145 16.5289 1.25418
2 20.7708 2.27724 11.9274
2 10.6082 28.0556 16.2106
2 22.7029 14.5031 14.9231
1 24.5696 26.2324 0.913702
3 25.9664 8.86062 17.171
3 16.201 3.47853 16.0638
3 27.1167 3.3678 15.5906
2 20.9831 5.92769 20.2642
2 2.84957 22.2415 15.3275
1 20.6511 4.01065 23.7428
2 28.2285 9.71504 0.749804
1 6.55433 5.45147 25.4319
2 4.28994 5.74933 27.1903
3 24.1011 4.4547 18.4929
2 20.5774 22.7281 3.65423
2 25.0173 1.70599 13.516
2 3.66631 21.6913 6.4538
1 0.488709 24.8912 20.3771
2 13.4197 25.7292 17.114
2 27.3557 4.07703 5.19424
1 13.954 1.90447 27.4764
1 1.99508 13.8051 6.1652
1 2.37948 18.3193 16.3406
3 27.4922 16.6552 18.1375
1 27.4607 8.70973 3.52826
2 24.386 17.0081 18.3077
2 11.2952 12.6308 13.2502
2 6.41756 6.62048 4.19673
2 0.626001 0.270886 25.2275
1 22.8161 27.999 12.2466
2 27.9058 23.9306 17.8492
2 23.4838 24.234 8.45178
2 5.48271 19.0031 14.5764
2 3.20093 11.8458 26.9685
2 26.7416 9.59888 21.3865
3 3.03935 12.9883 1.34161
2 24.7844 21.7762 11.4286
1 4.85091 15.8074 16.8155
3 5.79668 7.89516 22.4711
2 18.9154 15.688 15.1415
2 15.4887 3.18738 25.6555
2 10.5654 28.0833 4.82551
3 8.21581 28.218 18.2139
2 4.51684 14.9096 11.1185
2 9.95323 12.9167 17.3192
1 7.5265 15.8236 24.354
2 24.0739 0.695874 9.86488
1 22.0081 17.8674 23.1746
1 10.7085 14.9145 28.2144
2 14.042 26.8137 3.41684
1 22.2157 17.1897 14.8429
2 8.99039 10.9171 11.1659
2 18.6805 9.92253 14.9822
2 19.5033 25.1951 7.86882
2 23.762 18.5134 9.67368
3 25.9081 2.66468 7.46844
3 24.8666 12.8187 28.2752
2 17.9794 7.58695 18.3359
2 15.7417 6.64154 3.9099
2 6.80314 27.9419 14.4039
1 17.6802 0.488201 21.5692
3 13.8917 22.126 9.11471
2 21.0264 23.6302 18.5512
2 21.0677 16.4879 4.83505
3 5.89367 15.867 0.837871
2 4.59658 25.6245 8.46066
2 22.7151 27.7653 18.5561
3 2.79284 20.3136 13.0364
2 5.62188 18.7549 27.1457
2 11.7804 4.36728 27.8221
1 10.8506 24.9962 10.7726
3 26.9108 25.9146 25.0923
2 23.072 3.2698 21.0168
1 27.1053 16.1492 2.31802
3 18.2318 23.9216 5.28922
2 24.8247 15.1853 10.7503
1 22.0559 23.2391 24.6732
3 8.36863 11.3671 21.866
2 27.9478 19.1176 16.4521
2 27.122 11.9937 12.2775
2 8.34437 3.69538 16.0159
2 8.6522 26.3852 9.28553
1 18.607 24.117 24.5121
3 23.8345 14.9926 20.7728
1 1.80916 2.66625 7.81544
2 25.6876 26.4306 16.3475
2 16.5657 15.5791 23.6781
2 6.84848 17.4148 8.79438
3 15.9754 26.3193 9.11494
1 11.9016 10.8405 10.4707
2 25.3517 20.9144 19.2032
2 1.44535 1.61663 15.7822