729
Atoms. Timestep: 1000
3 28.0537 28.1262 1.01182
2 3.63126 0.562266 2.41216
2 5.74641 0.0922559 0.136632
1 9.87806 0.193824 0.569387
2 12.5629 28.5008 0.194479
2 15.8665 1.06549 0.330689
2 19.7661 1.50572 28.2841
2 21.545 28.0884 27.8957
2 25.2826 28.2678 27.9883
2 28.1773 2.4229 27.1289
3 2.8709 2.94728 0.698681
2 5.65879 3.86886 28.5786
2 9.79558 3.79099 0.861465
1 12.371 2.73671 28.5671
3 15.9455 3.80466 2.10432
1 16.6736 3.46208 27.9807
1 21.1091 3.75961 27.2685
3 23.5387 2.45524 26.5582
1 1.54173 7.10649 0.461628
3 4.17011 7.57049 0.576533
2 6.28854 6.5172 27.7034
2 10.0198 9.18206 27.9674
2 11.9934 6.08528 1.91025
3 16.0992 6.48857 1.57749
2 19.5416 7.6245 0.157574
2 25.0833 9.53732 27.3422
2 27.7311 4.91701 1.07368
2 27.7176 9.46887 2.19867
3 5.48119 11.2349 1.08178
1 7.36035 9.06382 0.949018
1 11.9848 10.5002 0.550455
1 13.5432 8.36006 0.0445538
1 15.7306 9.33663 1.86097
1 17.5308 10.6929 28.3629
2 20.6733 10.6625 28.1931
2 23.2517 9.74244 1.59219
1 0.30169 11.045 27.8044
1 5.44307 14.3399 0.293443
3 7.6112 12.88 0.648461
1 9.44545 12.0201 27.5371
1 14.5274 11.7086 2.36475
2 14.0168 10.9482 27.4216
2 16.5729 13.2743 28.3782
3 20.5914 14.3117 27.8858
2 26.3609 12.0511 28.429
2 1.36575 13.0522 0.906029
3 3.5268 15.0932 2.89911
2 5.69155 16.5717 27.3899
3 9.42426 15.1814 0.0791265
2 11.6734 13.2317 0.205263
2 15.9122 17.0304 1.15398
2 23.4119 14.8574 0.809219
1 24.3175 12.5457 1.69937
2 27.4779 14.0057 1.38247
2 27.6743 19.776 27.2743
3 1.68096 19.5585 27.2402
3 6.52075 20.2073 27.4816
2 11.3767 19.6692 1.79032
2 14.5087 19.4861 1.13576
3 15.7694 21.6883 0.346387
2 20.4017 19.0651 28.5342
1 22.939 19.2752 1.3757
2 25.0627 17.9178 0.0725661
3 0.0851949 23.2933 26.8593
2 2.86487 22.2411 27.4447
2 7.10697 22.6258 0.884692
2 9.87413 22.8137 0.201107
2 12.9277 22.4749 0.539941
2 15.952 24.9429 27.5714
2 19.0341 21.8722 0.836168
2 23.2328 22.383 0.446043
2 25.8454 23.4072 26.9698
1 0.0765152 24.9399 0.371433
2 2.44717 26.4276 0.691307
2 7.32255 26.1931 27.9508
2 9.92643 26.1312 0.369739
1 13.3724 24.9966 28.4883
1 17.1825 27.2242 0.103123
2 19.4873 25.695 0.148702
2 23.1058 25.2655 28.3929
1 25.7107 25.6005 28.5055
3 28.5504 1.29502 3.2658
3 4.8486 0.629202 5.16781
2 7.05628 0.144387 3.20151
2 9.81277 0.109808 3.36983
3 12.6798 28.4394 3.04036
1 15.5558 28.2151 2.91458
2 18.2807 27.6306 2.6542
2 22.9129 0.0899424 3.55044
2 25.6552 1.94009 2.05672
1 0.94742 3.64079 2.44011
3 3.61617 3.40274 3.64957
2 7.09329 3.04471 2.243
2 9.40745 2.99884 5.25125
2 12.9633 2.96136 2.55975
2 17.3329 3.82632 4.98283
1 18.288 5.24349 0.509408
3 22.8114 2.30172 1.37298
1 24.3495 4.44884 2.11359
3 0.202063 6.84339 3.31851
3 3.22977 6.50211 3.34864
2 6.17658 7.0452 2.68949
1 9.89454 7.80741 2.23231
3 12.6193 6.06151 4.93354
2 15.6349 6.15009 4.76132
2 19.0324 7.18164 2.95199
2 22.512 5.64966 0.906172
3 25.7826 6.00126 3.71038
1 2.95743 9.65136 2.36458
2 4.40267 9.61702 4.59929
2 8.09797 10.6188 3.03928
2 11.3839 9.66259 3.54014
2 14.0986 9.73745 3.94811
2 16.9375 10.035 4.08563
3 20.976 10.8196 2.6404
3 22.1471 7.62968 4.15548
1 25.3111 8.91194 3.42618
2 1.21096 12.1932 3.90038
3 4.06917 12.7995 4.40099
2 6.98503 13.3268 4.16806
3 9.47894 13.6078 2.9025
2 12.4051 13.1579 3.57216
2 15.5904 14.6597 4.25342
2 19.5524 13.3008 1.81554
1 22.6267 11.503 4.98235
2 25.3799 12.0274 4.36833
2 1.04649 16.9325 1.68898
3 1.21912 16.8027 4.47895
2 6.15048 15.8112 2.44514
2 9.62422 16.619 2.56542
2 12.7088 16.6006 3.80282
3 15.5825 17.5533 4.27371
2 18.5876 17.5409 2.95504
3 21.9084 14.5736 3.3136
1 25.0362 14.6318 3.42872
2 0.207469 19.9906 2.09486
2 3.95131 20.2084 2.20416
2 6.22772 18.5738 1.35504
2 9.17232 19.981 4.36256
3 12.2957 19.6507 4.30624
1 15.0911 20.2592 3.93734
1 17.8699 20.1458 3.22912
2 22.0775 17.2588 3.53152
1 26.5214 18.8235 2.4454
1 27.1335 23.4423 2.79488
2 1.87951 23.7042 1.84356
3 4.33998 22.9575 2.74523
2 7.68964 22.2817 3.78225
2 11.3449 22.5846 4.10077
2 15.4295 22.7664 3.29176
3 17.9431 24.4981 2.85252
2 20.3151 22.817 3.53903
2 24.8805 20.9074 2.79732
2 0.146896 26.1787 2.92466
2 3.19945 25.877 5.32364
2 6.01491 25.7504 1.63609
2 8.89362 25.1785 2.99626
2 11.7396 25.6435 3.28451
2 15.2144 25.809 2.01121
2 20.9517 26.2058 5.44492
2 22.73 25.4964 2.89952
2 25.7066 25.7908 2.57975
1 0.668219 27.1957 6.22155
2 3.67432 27.9205 8.14698
2 6.8712 0.984837 7.9723
2 9.09788 27.7338 7.18063
2 12.7824 28.2373 6.37579
1 15.3164 28.5493 5.37841
2 19.0079 0.544103 5.10438
2 23.1741 27.4252 6.24049
2 27.2394 27.8614 4.96113
1 0.457136 2.99548 6.00963
2 3.51297 3.10128 6.90632
1 6.64087 2.84909 5.10383
2 10.1488 2.39605 8.1705
3 13.5691 2.49189 5.98706
2 15.2832 3.04192 7.86689
2 19.9231 2.01787 2.57798
1 23.6594 2.96368 4.08174
2 26.3686 2.58976 5.45206
2 0.335452 5.83869 6.04195
2 3.03446 5.73779 7.91799
2 6.45308 5.93079 5.50196
2 9.7365 6.00941 5.04086
2 13.7238 5.36544 7.78721
1 16.4621 7.1282 7.44324
2 19.1086 5.99826 5.95013
2 22.8911 5.4229 6.17716
3 25.9094 5.08914 6.40155
2 28.3681 9.83646 5.34351
2 2.54041 8.91321 7.72088
2 8.19477 9.04833 6.43586
1 10.9093 8.45558 6.1708
2 13.5379 8.3005 7.57154
2 16.2936 11.0958 7.1383
3 19.5346 11.035 6.76389
3 22.4041 9.24212 6.73924
3 25.3853 9.46349 6.87801
1 0.0989987 12.8534 6.20482
1 4.05939 13.3615 6.92642
1 8.09104 11.6971 6.96984
1 10.8145 11.8152 5.48925
2 13.2447 11.4357 6.77219
1 16.3885 13.757 6.80699
2 18.4472 13.8133 5.03235
2 21.2934 13.4041 6.60311
1 25.6729 12.6095 7.29977
2 27.4118 14.9711 5.16507
2 2.58958 15.8453 6.99178
2 6.6061 14.6423 7.04821
2 10.3257 14.521 7.20979
2 13.4112 14.7637 7.6012
2 17.0473 16.6377 7.10152
1 19.3281 16.5877 5.78255
1 24.9505 14.7195 6.36548
3 25.1602 17.8061 4.50462
3 0.234294 19.2267 5.44167
3 3.47016 19.5345 5.08528
2 7.26138 18.1265 5.18271
2 10.3438 17.9551 7.43705
3 13.1397 17.69 7.67915
1 17.0415 19.8203 6.65594
2 19.5801 19.8145 5.66497
3 21.5771 16.4379 7.15378
1 23.1651 20.2724 4.77191
3 28.2933 22.3145 4.82014
2 2.51196 22.187 5.56959
2 5.78013 23.3401 5.98847
2 8.64548 22.6353 7.58317
1 11.3968 22.12 6.83737
2 13.6794 20.8684 6.79184
2 17.8402 22.475 6.62796
2 21.1292 23.4112 7.00815
3 24.787 21.9265 6.86413
2 0.88937 24.6152 7.35421
1 3.63225 23.8558 7.43339
3 5.97023 26.3236 4.76142
1 8.98689 25.1276 6.45981
2 11.5853 24.6696 6.36531
2 15.57 25.9337 5.34056
1 18.3659 24.9061 5.78643
1 23.2552 25.0561 7.91142
2 24.2128 24.4777 5.41474
2 0.843108 0.18859 8.41708
2 4.23359 28.6091 11.136
3 7.00295 27.6886 11.2001
3 10.8109 0.0562262 9.38268
2 13.4874 0.668746 9.30369
3 16.1579 28.4977 7.83762
2 19.4497 0.969674 7.89402
2 23.0521 0.260127 9.27931
3 25.8349 0.302379 9.37829
3 2.22504 2.20882 9.89563
1 5.03831 2.72408 9.54109
2 7.55546 1.9841 11.088
2 11.224 2.3459 11.4083
3 13.6077 3.96367 12.5444
2 16.6325 0.961338 10.8146
2 21.2389 3.38102 6.94121
2 25.4109 3.79597 9.69774
2 28.1654 3.24455 9.15192
3 1.38961 6.51014 10.0718
2 4.38168 4.58018 11.2826
2 7.80973 5.32064 8.49211
1 9.24083 4.81407 10.9331
2 11.9309 5.90289 10.6453
2 16.0877 5.96056 9.95672
1 20.3653 5.4435 8.196
2 22.7667 6.60612 8.99202
2 27.7001 7.64674 8.44971
1 0.0997725 10.4626 7.71842
3 3.46145 8.16319 11.0568
3 7.02756 8.06151 8.87692
2 10.2165 7.96161 9.78188
2 13.5557 9.77311 10.1919
1 16.6577 8.17733 11.1591
2 19.2613 8.66782 8.47176
1 21.6157 9.20308 10.1255
3 25.2453 9.42564 10.2302
1 27.959 12.4049 10.3017
2 1.85428 12.4406 8.65401
2 5.43091 11.1934 7.91931
2 9.51672 11.3357 9.86066
1 12.7033 12.3437 10.3657
2 15.0919 14.1568 10.4768
3 17.3793 12.3022 9.77771
2 21.2127 12.0411 10.361
2 25.403 12.3949 10.8132
2 27.797 15.9382 8.08716
1 2.38388 15.3172 9.76164
3 5.73879 14.517 9.72158
1 8.58199 14.1149 9.46561
2 11.224 14.9924 10.0399
1 15.2297 16.9218 9.52661
2 19.4395 13.9169 8.79975
2 24.1086 14.7846 9.00742
1 25.502 17.2148 8.98656
1 28.127 19.1192 9.42271
3 4.88775 17.9585 6.95716
2 6.03237 17.4482 9.6469
3 10.4153 18.9227 10.2469
2 13.0696 19.4112 10.6569
2 17.8961 20.2038 9.27366
1 19.7458 18.8163 10.4494
2 22.9789 19.0607 7.65715
3 25.9681 19.3303 6.78038
2 0.905642 21.2734 7.75191
2 5.26165 20.9568 8.03305
2 5.23067 23.3493 10.0627
2 7.7963 20.9174 10.1381
3 12.9554 22.3377 9.94901
2 15.6982 22.9623 8.92543
3 18.6551 23.7723 9.23651
1 24.8031 23.5653 9.1426
1 27.0888 21.8578 9.13379
1 0.255312 26.2149 9.17957
2 2.9721 25.4291 10.1324
1 4.86031 25.3333 11.9933
2 5.78855 25.8493 7.72353
2 12.037 25.7737 9.22777
3 14.8204 25.7259 8.23959
2 18.2286 26.4286 8.38533
2 21.6839 22.154 9.63594
2 26.2292 25.9458 8.03898
3 0.234882 0.637013 12.8603
1 4.87628 0.408346 13.6728
2 7.61834 28.2367 13.8568
2 10.669 28.4761 13.6079
2 13.7077 28.522 13.1595
2 18.593 27.7488 12.0913
2 20.898 26.6703 13.5269
3 23.4392 27.4633 12.371
2 26.0779 0.782675 12.5782
2 0.719913 3.49989 12.4816
3 3.37749 2.76702 13.8826
1 6.35661 2.37486 13.5674
2 7.88374 4.28356 14.9546
2 13.9292 6.333 14.1787
2 14.9138 3.57741 16.7214
2 20.4582 1.52299 10.567
1 23.0407 2.78265 11.4137
3 26.4336 3.77197 12.8552
2 0.00958835 7.74445 12.2964
2 4.67279 3.79204 16.6706
2 6.45789 9.34877 11.4354
1 7.76544 6.43519 12.7218
3 10.5682 6.99009 12.9535
3 16.6454 7.38699 13.6364
3 17.9664 3.16129 9.61154
2 21.4583 4.88259 12.3351
2 25.5084 6.31259 12.0466
1 28.7035 10.2504 11.631
2 2.5194 10.5305 12.0274
1 6.75994 11.957 10.3652
2 8.20437 10.9865 13.462
3 13.7787 8.96595 13.2024
2 16.4507 10.8968 13.7121
2 19.4358 8.04766 12.2914
2 23.3878 9.61818 12.4134
1 27.4693 12.061 12.9681
2 0.102625 14.6267 12.4283
2 3.74638 13.5999 11.965
1 6.85756 13.6862 12.4052
1 9.40627 13.5927 12.529
1 10.7703 10.9801 12.4469
3 16.6553 14.1563 13.1674
1 19.1571 11.7719 11.7825
2 19.3356 12.5822 14.3539
2 21.4966 15.8179 10.3069
2 26.332 18.0624 11.3671
2 2.24184 18.81 9.24696
1 6.23341 16.2116 12.8983
2 8.87251 16.2429 12.3022
2 12.7323 15.7072 13.2355
2 16.5175 17.9608 11.8258
2 18.565 16.231 10.323
2 21.2937 15.6437 13.9282
3 22.7324 18.3982 11.9171
2 1.02286 20.3768 11.9822
1 3.85089 20.5859 10.5035
3 6.98052 19.1219 12.0438
2 10.2653 19.3728 13.8118
2 14.0018 18.8139 14.2098
2 16.5841 20.8756 12.8997
3 19.8517 18.2648 13.5264
2 23.862 21.5111 12.5056
2 24.8484 20.4237 10.1473
1 2.14291 22.8823 9.92245
2 4.92719 22.7499 13.9021
1 6.55474 20.3661 14.4274
1 10.1197 22.5274 11.2777
2 13.2239 22.0405 14.5373
1 16.9598 22.3762 15.0729
2 18.6629 22.984 12.6055
2 22.3363 22.9616 15.1996
2 28.4191 23.0767 11.1866
2 0.0123473 26.2664 13.123
3 2.86997 26.6902 13.7647
3 7.10321 25.058 13.9578
2 8.52758 24.624 11.2705
2 12.1829 25.3346 14.9844
2 14.7918 24.5408 12.4146
1 17.329 25.2092 13.0768
3 21.5262 23.5635 12.2142
2 24.1963 24.5809 11.9191
2 2.3375 0.510877 15.5641
3 2.51565 27.1849 18.23
2 5.28748 27.6201 16.5382
2 9.69047 27.1747 17.7541
3 12.1451 28.0958 16.0704
2 15.6792 28.1787 16.3465
2 22.3208 1.40966 16.598
1 22.5858 1.04631 13.5275
3 28.1969 28.3309 15.7217
2 0.43187 4.31184 18.5055
1 0.524543 4.24623 15.7877
3 6.72301 1.68694 17.0369
2 11.2017 3.83947 14.2613
1 12.7074 4.87904 16.5504
3 13.3247 1.49255 17.9734
2 18.4983 0.567912 15.3666
2 20.6494 2.62309 14.1622
2 24.0494 3.74489 14.5803
2 27.7963 6.61662 15.9873
1 1.38452 6.53387 17.1129
3 7.98667 6.7403 16.3647
1 9.87276 4.8429 18.4129
2 10.4036 7.9413 16.2704
2 14.1254 9.09758 15.946
2 16.508 2.54063 14.4072
3 18.1112 4.95917 13.4163
1 23.4408 6.32114 13.6466
2 27.729 10.0963 14.9527
2 3.89033 7.36462 13.6782
3 5.65043 9.33264 15.3916
2 9.27659 10.9117 16.409
1 12.264 11.1511 16.2656
1 17.3873 7.88426 16.7324
1 21.1464 7.30043 14.8011
2 21.6546 9.99863 15.6511
3 24.992 11.1494 15.1148
3 1.07381 12.9771 15.0253
2 2.34326 10.767 17.3216
2 5.23613 12.0451 15.67
3 7.59982 13.41 16.4933
2 10.7314 13.9623 15.0116
3 15.1448 12.2023 15.6041
1 18.5972 9.33001 14.8793
2 22.6241 12.8214 14.6101
3 26.1725 13.787 15.579
2 1.11371 16.849 14.5056
2 3.87666 16.6415 14.9063
2 7.37477 16.2982 15.6008
3 10.4884 17.0907 15.5681
1 13.3531 14.7765 15.8629
1 15.182 16.4464 14.2534
2 18.7359 15.6866 15.9691
1 23.5978 17.0134 15.0293
2 26.2829 16.5653 15.1844
1 27.9915 19.2556 13.5512
3 3.87174 19.0963 12.7924
2 4.33668 19.1157 16.0528
1 8.73561 19.1994 16.0869
3 13.028 18.75 16.9208
3 17.3938 18.405 14.767
1 18.8437 18.2826 17.2883
1 21.4714 17.5388 16.8001
2 22.21 19.2592 15.1327
3 2.13786 22.8267 13.3373
2 1.11913 20.8658 15.6136
2 7.10948 22.2537 16.8947
3 9.29268 22.9293 14.2052
1 11.2488 20.9363 16.0534
1 16.4453 20.3095 16.5488
2 19.0805 21.0598 16.4131
1 24.7972 24.4244 14.2237
2 25.9436 21.3633 14.1304
1 28.1318 25.2641 15.6177
2 2.22633 24.7213 15.9062
2 6.57713 24.9596 16.7863
2 9.65323 23.2174 17.5661
1 11.7864 25.0719 17.6115
3 15.1532 24.52 15.1896
2 18.0867 25.1757 15.6037
1 22.6325 27.5845 16.4888
2 24.9917 26.8363 15.2377
2 28.4989 24.5097 19.8535
2 2.55404 26.6764 21.9132
2 6.80451 28.4138 20.3639
1 10.1374 0.699372 19.7866
1 10.5839 2.01499 16.6155
3 15.7446 27.1932 19.3887
2 19.0607 26.5892 19.1719
1 22.9767 1.40716 19.2752
2 25.4207 0.95289 18.2424
1 27.4173 -0.0454394 19.7546
2 1.0059 0.927583 18.6089
1 5.14869 1.71562 19.7242
2 7.47057 3.2592 20.4465
2 11.6231 3.23004 19.7806
2 14.7335 4.77029 22.0936
2 18.1134 2.53933 18.0963
2 23.3297 4.34111 18.572
3 25.9455 4.13863 16.9452
2 1.22271 8.01594 19.6329
2 4.33963 4.72671 19.1983
3 7.1759 7.02841 19.157
2 10.2514 7.28953 20.1901
2 13.8931 6.97565 17.9568
1 17.562 8.28784 20.2368
1 15.3638 5.47212 19.2673
2 18.2199 5.89841 18.5782
2 25.2055 6.78687 17.2849
2 2.50384 10.562 20.6032
1 1.67486 8.97477 14.8034
2 4.62628 8.52552 17.8922
2 8.2008 11.3236 20.2365
2 12.1279 10.3994 18.8481
3 14.9995 9.95274 19.3794
3 19.2533 8.74205 18.325
2 22.5784 8.87046 18.5669
3 25.1416 10.4818 17.9362
2 27.8769 11.1062 19.1996
2 3.16934 13.327 19.2196
3 5.97813 12.8571 18.7583
2 9.8643 13.8105 18.8726
3 13.0085 13.3863 18.5774
3 15.822 12.8485 18.5294
2 17.9229 11.3383 17.4118
2 24.1979 13.213 18.7821
1 26.9015 13.353 18.3104
2 26.702 15.7409 19.8687
3 0.914456 15.3164 18.9212
3 6.57117 16.0122 18.6049
2 10.1912 16.7299 18.9653
3 13.0456 16.2637 19.4449
2 16.1393 15.8178 17.7466
2 20.9317 15.7269 19.4796
1 23.1439 15.7647 17.8113
1 25.477 17.3985 17.5146
3 0.415823 19.3634 17.992
3 2.8366 17.7284 19.0517
2 7.00466 18.8948 18.8126
2 10.5095 19.4115 19.1831
2 13.387 19.4119 20.1049
1 16.3123 18.2943 18.7995
2 18.0174 17.7474 20.637
2 22.5531 19.7177 18.8766
3 24.7013 20.024 16.9101
1 27.2431 21.5732 16.7036
2 4.3785 21.5683 17.6343
2 7.8104 22.3358 20.1292
1 10.8257 22.2193 20.1193
2 12.8644 22.3192 18.5261
1 15.3945 21.1031 19.2591
1 17.8328 20.4559 19.2706
3 21.329 22.4637 17.9206
2 25.1077 23.2559 17.8973
3 2.25044 22.8746 18.8356
2 4.51223 24.7446 19.9019
1 7.68189 25.044 19.9161
2 10.967 25.9904 20.5447
3 14.012 24.5899 19.9532
2 16.3656 23.4802 17.8479
2 19.2604 23.616 19.9317
2 22.4541 25.9792 18.7349
1 25.3765 26.1335 18.2596
2 27.8737 0.554202 22.7557
2 2.75848 1.39791 24.5696
3 4.73983 28.3273 22.5302
2 6.92874 1.56542 23.5785
3 13.2429 27.9765 20.3764
2 16.78 27.1596 21.7439
2 20.4351 28.2938 22.5523
1 22.4218 28.0055 20.6827
3 25.097 0.0371385 22.0192
2 28.0494 3.02547 21.0229
2 2.05155 4.73287 21.9218
3 5.16671 3.48967 22.6666
1 8.06897 4.44723 24.7272
1 9.60789 2.57922 22.1076
2 12.8271 1.28379 22.676
2 17.66 3.07856 20.9598
1 20.5337 2.56444 21.8959
3 25.1018 2.76634 22.0377
3 0.131561 6.95307 23.2849
2 2.85694 7.88957 22.8425
3 7.62546 6.48571 21.9462
2 10.1234 5.0839 23.3427
2 13.2987 5.16356 25.2691
1 15.9047 5.09173 25.7802
3 18.7412 6.08357 22.161
2 21.5365 5.46619 20.8905
2 27.1128 6.16227 21.153
1 28.4182 10.5348 22.5847
2 3.49045 10.9383 23.2559
3 5.38438 8.85009 22.2713
3 9.30161 9.51491 22.7444
2 14.6345 10.3317 22.036
2 15.5112 7.57233 23.6918
2 19.4658 9.12274 21.9984
2 23.7829 8.60697 22.8639
3 26.2398 9.36967 21.5478
2 0.207657 13.3302 22.4437
2 4.67335 13.8943 24.9494
3 5.99992 13.4536 21.9136
1 9.8401 12.2286 22.0966
1 12.5858 12.6479 21.8265
2 15.42 14.082 21.6113
2 19.7302 12.386 23.557
2 22.0327 11.5473 21.9995
3 25.8479 12.3269 22.0087
1 28.0992 15.8741 23.1351
2 2.66921 15.7358 22.2775
2 6.47492 16.2434 21.8044
3 9.11735 16.1914 22.1267
2 12.5485 15.5179 22.516
3 15.5618 16.8693 22.1575
2 17.7202 16.3866 23.8287
3 22.141 15.1746 22.905
1 23.9938 17.6917 20.0043
3 0.13648 18.3137 21.0545
1 2.78459 18.3464 21.5196
3 5.33859 19.2293 21.0846
3 8.73622 19.0013 21.8949
1 10.7044 20.3269 24.7177
3 13.9653 19.4768 23.2575
3 17.8061 19.4405 23.8366
2 21.4481 17.9716 23.5286
2 25.9131 19.4888 20.8084
2 28.0332 21.6825 20.7677
2 4.50808 22.0438 20.8781
2 7.88172 22.691 22.9256
3 10.6727 22.8842 23.0579
3 13.5756 22.2552 23.6308
2 17.555 21.3691 21.5253
1 20.1595 21.1296 20.709
2 21.1832 21.0053 23.1422
3 24.49 22.6943 20.5282
1 26.2632 23.9825 23.4808
2 0.606188 24.4147 22.7152
2 6.33289 25.1216 22.303
2 10.6185 25.7684 23.3712
3 13.9716 26.3368 23.1446
1 16.5253 24.5661 20.9896
3 19.7083 24.015 23.1757
3 21.846 25.8748 22.5924
2 25.5714 25.5761 20.9137
1 26.963 0.540205 25.8708
3 2.24625 28.2181 27.1602
1 6.0583 1.724 26.2416
2 9.71252 0.261272 26.0937
3 13.4416 1.57405 25.8029
2 15.6288 28.3472 26.3584
2 18.5147 26.9797 25.5615
3 21.2977 26.4858 25.5481
3 23.2105 0.356982 24.7975
3 0.648561 3.42032 24.0885
2 1.75214 5.54695 26.6046
3 4.75453 4.61686 25.6544
1 8.45057 1.91211 27.7215
1 10.3445 3.50929 26.7686
1 14.0826 4.47795 27.8706
2 19.9967 2.71805 24.9387
2 22.5111 3.169 23.593
3 25.8424 3.94757 24.8196
1 26.9899 4.96414 27.0174
3 3.11632 8.01067 26.052
2 6.64656 7.2596 24.5168
3 10.8886 8.1971 24.6571
1 13.4119 7.85677 25.9026
2 15.7513 7.2719 27.1352
2 18.8161 6.30739 25.0188
2 22.7984 8.14428 26.772
2 25.0116 6.75874 25.3813
2 0.863031 9.24058 25.1976
2 4.55641 10.9265 26.1804
3 7.30043 10.0163 24.7392
1 11.8764 10.5256 23.0184
3 13.6332 7.16175 21.5732
1 16.0088 9.73331 26.1689
2 18.7459 10.1617 25.8491
2 21.6477 9.90489 24.5917
1 26.1814 9.94867 24.4501
2 0.67262 12.7642 25.3803
1 2.88072 13.7995 27.3023
2 7.01664 13.6297 26.1712
2 10.1247 13.3264 25.164
2 12.6937 12.4849 24.5099
2 15.5126 12.7837 24.3926
2 18.1639 13.1389 25.7857
2 22.3346 12.4883 26.2961
2 25.0363 12.4497 24.3954
2 27.507 15.7403 25.8681
2 2.11071 16.3094 26.5563
3 4.12587 16.7054 24.521
3 7.47524 16.4611 24.8531
3 11.8567 17.8556 24.9865
3 14.659 18.7776 26.5233
2 14.2041 15.8589 26.599
2 22.6561 15.354 25.8504
2 25.1645 16.0072 22.5015
2 26.6269 18.7447 24.5128
2 1.77703 19.0758 23.9916
2 4.82424 19.9049 23.885
2 7.61572 19.2395 24.8397
2 10.1631 17.5884 27.1568
2 17.3912 19.016 27.274
3 16.8507 15.9778 27.4146
1 21.4837 17.5486 25.9806
1 24.0867 18.3417 22.6609
2 27.3633 21.5606 24.9146
2 2.33561 22.1496 23.9229
2 6.7978 23.1917 25.8182
1 9.48878 22.4254 26.1913
3 12.6217 21.4557 26.3669
2 17.0181 21.5782 26.3827
2 20.9153 20.947 26.3767
2 23.4717 19.2253 26.4671
2 24.2571 20.9722 24.1425
2 0.792051 25.7558 25.613
2 4.76986 27.7668 25.652
1 7.50579 26.3704 25.3862
2 10.1289 25.2423 26.1317
2 13.0122 25.3791 25.8106
2 15.7444 24.2201 23.5252
2 18.3966 24.2168 25.9165
2 21.9713 23.6139 25.8921
2 25.5675 26.7391 25.0347
729
Atoms. Timestep: 2000
3 27.86 27.6219 0.0590002
2 0.820908 0.692697 4.72782
2 4.68998 28.459 28.6282
1 8.35977 0.214804 0.452966
2 10.9555 0.279017 0.101876
2 14.0884 1.40557 0.718339
2 19.4894 0.412597 26.628
2 23.167 0.793194 27.0864
2 26.4431 0.674082 26.746
2 0.543435 2.04018 27.7811
3 2.69468 0.188424 2.316
2 4.23379 3.49266 28.0709
2 9.66029 4.00255 26.8969
1 11.4187 2.98695 0.362604
3 15.6626 0.359661 3.88041
1 17.8193 4.06837 27.8513
1 20.9819 2.99859 26.0794
3 23.8071 3.59056 27.4262
1 26.815 8.4509 27.8222
3 2.09338 6.7753 0.879785
2 9.79005 7.66273 25.5224
2 12.2008 6.98725 27.7565
2 14.4824 5.22595 1.80085
3 17.7443 7.41767 4.24218
2 21.4462 7.86353 27.6329
2 25.1721 8.32217 25.5983
2 28.3237 5.24907 2.88444
2 26.0525 8.60688 3.37718
3 5.66301 11.5792 2.88195
1 10.284 8.86129 27.986
1 12.3365 10.0873 1.37752
1 14.6279 7.63104 0.418125
1 16.2156 11.2456 2.60101
1 17.3241 8.86985 28.5988
2 19.2892 10.0332 26.9507
2 24.4084 8.99863 0.519197
1 28.4732 10.7052 28.0842
1 5.87087 14.6289 26.8375
3 7.40136 11.4338 28.479
1 11.6907 11.1065 27.4821
1 13.4293 12.3918 0.563294
2 13.308 12.5628 25.6439
2 15.9129 12.3747 0.0766236
3 19.5586 12.9897 27.0153
2 26.3208 12.4915 28.1119
2 0.207552 10.4711 2.08366
3 2.49558 12.189 1.70626
2 5.67645 17.352 26.8619
3 8.1815 15.8415 28.5406
2 10.0209 13.5425 27.8834
2 16.2095 14.8832 1.5859
2 24.0949 14.8097 27.9525
1 24.8873 11.5541 1.59764
2 0.257596 14.3072 2.28203
2 28.3374 18.6191 25.3592
3 1.97936 19.8881 28.315
3 5.4925 21.2405 27.7124
2 12.0979 19.8413 1.97504
2 13.8562 16.5238 1.8552
3 15.6309 23.4847 26.4746
2 23.127 17.5076 28.565
1 24.3541 18.6043 2.04322
2 26.8049 19.1792 1.58275
3 0.127245 21.859 26.1165
2 2.85428 22.5935 27.4503
2 6.28646 23.5883 0.7952
2 10.7053 23.5602 1.53264
2 14.7599 23.4016 1.66436
2 14.3133 26.2032 27.001
2 19.9796 20.1379 0.985063
2 24.1136 21.2741 0.686081
2 25.8717 23.0107 26.1029
1 27.4553 25.2193 26.7118
2 1.81973 25.8694 0.0450377
2 7.67365 26.8564 27.041
2 8.17041 26.4843 2.27069
1 14.0896 26.3685 1.8776
1 17.7057 26.5279 26.4435
2 19.805 24.7561 27.6812
2 22.5357 24.3274 0.595613
1 25.0582 25.7871 25.7465
3 28.1642 2.08933 2.23509
3 7.07784 1.07064 8.07614
2 6.18654 0.67894 5.26095
2 9.82792 1.44223 3.00848
3 12.2626 28.3606 3.19512
1 18.8356 26.9901 3.15345
2 20.558 28.3494 1.268
2 22.9138 0.975269 3.3851
2 25.4068 1.62544 1.19979
1 2.77763 4.22491 2.02788
3 4.80233 2.05298 1.78376
2 8.12526 4.31121 1.64447
2 11.1752 4.20528 6.10108
2 13.8083 2.82659 3.77921
2 19.8285 3.45166 6.88801
1 19.5097 6.50247 0.0778808
3 20.372 2.13023 2.95442
1 24.8062 6.67951 1.90554
3 28.606 7.89617 6.08296
3 4.99031 5.929 1.33467
2 6.44336 8.94992 0.15655
1 10.3463 7.82206 2.03114
3 13.8746 6.20533 4.47486
2 16.4241 4.92505 5.03369
2 20.1509 5.20552 2.67287
2 22.4818 5.45214 0.562077
3 24.8703 7.14154 5.81467
1 0.605153 7.72386 3.05341
2 3.19548 7.87615 4.11766
2 8.93396 10.4529 2.02967
2 11.7356 9.47868 3.98802
2 15.359 8.74623 3.14024
2 18.9326 10.1168 2.02664
3 22.9821 13.2683 1.96037
3 22.5276 6.93823 4.09758
1 23.4458 9.70241 3.16586
2 2.67659 13.3054 4.53468
3 4.53717 11.4392 5.88335
2 8.18753 13.7475 4.31502
3 10.7362 12.6455 2.16157
2 13.7637 12.5693 3.22439
2 17.1904 13.1567 4.75222
2 20.3837 14.8405 1.77772
1 21.4869 10.083 1.06553
2 26.4563 12.3759 3.59308
2 1.07055 17.1411 2.43347
3 1.85657 17.0153 5.41339
2 5.91133 14.7579 1.19042
2 9.31157 15.6206 2.54285
2 11.9294 16.708 5.55306
3 14.6042 16.7006 4.82992
2 17.5557 17.8497 4.03342
3 24.8237 14.6523 4.30504
1 26.677 14.5966 1.12734
2 0.944726 23.531 0.656973
2 4.13508 19.0611 1.08443
2 8.12353 19.8472 28.0191
2 9.31958 17.9277 6.71675
3 12.415 19.7894 4.86117
1 14.47 19.193 2.87541
1 19.1599 20.4173 3.66934
2 21.2987 17.243 3.12854
1 27.3748 16.4591 3.25493
1 23.2168 23.3207 2.52626
2 4.49171 23.1157 3.99531
3 7.2484 23.1724 3.49332
2 6.67145 20.3676 3.27005
2 10.0962 21.2786 5.13494
2 16.6442 20.7313 3.17326
3 17.1681 23.958 0.812191
2 21.7347 20.9724 3.33627
2 24.9208 21.1922 4.46138
2 1.05987 26.4759 3.91474
2 2.24443 24.9717 6.93759
2 4.23556 26.471 3.96658
2 8.88563 26.3494 5.00164
2 11.866 25.323 3.58039
2 16.889 26.8666 0.871471
2 20.1257 24.45 3.08871
2 23.2204 26.9547 2.01164
2 25.6307 25.4883 0.529011
1 28.0232 25.9761 6.29791
2 3.16135 27.9635 7.60425
2 9.87776 1.24839 6.807
2 7.95286 26.7468 8.96369
2 12.9571 28.26 6.13294
1 16.4963 28.4671 6.75197
2 17.5995 1.97034 5.12159
2 20.3522 27.925 5.25585
2 26.3647 27.7071 2.728
1 0.303485 2.53992 6.74203
2 3.20339 2.67418 7.46427
1 8.19258 2.59899 4.99097
2 11.7318 2.61027 9.07538
3 14.1469 2.98666 6.77841
2 15.8559 2.80396 9.25565
2 17.8801 2.26858 1.40769
1 24.7535 3.5811 2.7048
2 26.6398 1.47525 4.92179
2 1.10278 4.75213 5.04758
2 2.28794 5.28065 7.81678
2 5.67082 4.17192 4.86144
2 8.37193 6.91673 3.41703
2 14.0855 6.77748 8.23883
1 16.488 5.29879 8.48063
2 21.2574 8.92745 6.07389
2 22.7618 4.13318 4.91237
3 25.4462 3.57711 6.41939
2 27.623 10.5253 5.85375
2 2.32652 9.99109 7.32772
2 6.73867 9.75648 4.50365
1 9.84569 8.1051 5.66206
2 14.5339 9.01019 6.4866
2 16.7322 11.5316 8.51734
3 18.3162 10.6809 5.53059
3 21.0002 11.1747 3.74007
3 24.4046 10.1586 6.94991
1 0.838133 12.8304 6.33002
1 6.29921 14.2744 8.55674
1 9.53701 11.0456 5.45057
1 14.041 11.6753 6.06858
2 11.9897 9.8611 7.31841
1 17.1189 14.4235 8.93064
2 19.5612 15.0389 4.62437
2 23.6204 13.8215 7.02778
1 26.674 10.8843 8.28874
2 27.2931 15.0992 6.09795
2 4.06603 14.8967 7.46469
2 8.24305 14.9518 7.00129
2 11.5355 12.972 6.5802
2 14.4811 14.899 7.82732
2 16.116 17.9276 7.35259
1 18.8407 17.3267 6.46898
1 26.3604 13.5788 8.03879
3 25.3624 17.4109 5.33804
3 0.897792 20.1058 2.17817
3 4.22011 19.8078 4.01597
2 6.68941 17.0334 4.08127
2 10.977 18.4212 9.41477
3 13.9008 18.6604 9.65927
1 15.5289 20.6047 8.58553
2 19.7896 19.9108 6.83024
3 22.3091 16.3292 5.45427
1 22.1601 19.2177 5.89693
3 26.377 24.4805 4.67957
2 0.0877549 23.1472 3.61705
2 6.5236 23.1363 6.30167
2 9.20291 22.0219 9.16609
1 11.7433 21.3964 7.78712
2 14.4066 21.8074 6.38905
2 17.8081 23.2532 6.95878
2 22.4037 23.9937 5.57477
3 23.7374 22.0232 6.88101
2 27.3965 24.1441 8.46083
1 3.81083 23.7676 8.69995
3 6.07028 26.5858 6.35235
1 8.91286 24.2637 7.19648
2 11.7941 24.4068 7.06018
2 16.5946 26.2966 4.88165
1 19.0632 25.4557 6.01645
1 22.17 26.478 6.78432
2 24.581 26.9257 6.14504
2 28.1698 27.5569 10.7324
2 2.8578 28.0822 12.158
3 7.45138 28.03 11.5361
3 10.9932 27.7948 8.82239
2 14.2287 28.3358 8.57034
3 17.7584 28.5745 9.84748
2 20.9123 0.816775 9.62219
2 23.167 27.7431 9.92669
3 25.742 0.901793 9.55735
3 1.64527 0.942853 9.20738
1 5.25752 3.58746 9.58205
2 7.95532 3.23112 10.7817
2 10.5326 0.377655 11.5404
3 13.8399 4.09433 10.9242
2 17.4287 3.2178 12.4844
2 23.5934 1.82102 7.58607
2 25.6778 5.20822 11.4149
2 27.3506 3.58619 8.64672
3 1.0351 6.68569 10.4106
2 4.07942 5.03534 11.7983
2 6.53879 5.19296 7.93776
1 8.04003 6.33985 9.78519
2 10.9388 5.79748 10.0287
2 18.0411 7.15564 10.8643
1 22.5461 4.54374 7.66995
2 23.8155 7.47331 8.61285
2 27.3003 6.65406 8.43171
1 0.517996 10.327 9.36954
3 2.97062 10.1174 13.6661
3 4.01457 7.48729 9.83598
2 8.45505 8.67263 8.60715
2 13.6842 10.095 9.86582
1 15.2404 7.5659 14.1878
2 18.2979 7.70011 7.01183
1 21.2628 8.03759 9.45846
3 25.3043 8.35314 11.4158
1 1.86668 11.5528 11.3097
2 4.45915 11.0614 9.2276
2 7.12348 11.9426 7.18518
2 9.66756 12.4079 8.98428
1 13.4098 13.0079 9.52208
2 15.7657 13.7009 11.1836
3 17.1439 10.4394 11.1407
2 21.491 11.2516 8.18045
2 25.3427 12.0301 10.6542
2 0.539999 16.8176 8.04079
1 2.66054 14.4292 9.66075
3 5.06187 17.044 11.2036
1 9.91805 15.4281 10.036
2 12.5189 15.0053 11.3858
1 17.7546 15.3626 12.0409
2 20.4068 10.8765 11.3131
2 25.7091 15.3305 9.90066
1 26.4049 17.4522 8.41314
1 28.5402 18.7716 9.81893
3 4.96965 17.6555 6.27122
2 7.15325 18.9077 8.03859
3 11.351 20.3792 11.6507
2 14.0566 19.5939 12.6681
2 19.0913 21.3053 10.2691
1 21.2032 19.9626 9.68271
2 23.5276 17.9369 8.07872
3 28.3874 19.1776 5.34109
2 1.53136 20.3474 7.98748
2 4.53875 21.0845 7.20041
2 6.84791 23.4508 9.77353
2 4.77747 21.1374 10.897
3 13.1978 21.9628 9.90017
2 16.3646 23.3669 10.7011
3 20.4917 23.3766 8.18623
1 25.3214 25.763 9.01945
1 27.3965 21.8738 6.17795
1 28.2685 24.7892 11.1106
2 2.27675 24.494 11.2377
1 4.90158 23.6459 12.0866
2 4.69909 26.3448 9.48096
2 12.7236 24.988 9.95012
3 15.4543 25.4424 9.16023
2 18.6366 26.1407 8.97362
2 23.4463 23.8585 9.02098
2 28.0012 28.6199 7.82281
3 0.622859 1.10257 13.0023
1 4.33282 1.45 13.5275
2 6.98037 0.60172 14.1697
2 10.0985 0.381387 14.5126
2 13.7668 2.09375 12.49
2 19.5238 28.4035 12.02
2 21.1276 27.5203 15.3067
3 24.9832 27.8263 13.6796
2 26.3899 2.61751 13.7067
2 0.962281 3.46897 11.2566
3 5.29907 4.00244 14.4415
1 7.87033 3.85721 13.5799
2 8.28937 5.9837 16.3535
2 12.6745 6.36249 14.2716
2 15.2024 2.86 18.0357
2 23.155 1.25286 13.3153
1 23.517 3.92518 12.3033
3 28.2559 4.77964 13.7692
2 1.0668 8.11209 13.5762
2 5.33669 2.01437 16.4654
2 5.03245 8.74796 12.2341
1 6.64307 6.05812 12.0955
3 9.76993 8.1909 12.033
3 16.9324 6.23405 15.5671
3 19.814 3.22165 9.66893
2 21.5386 5.23379 10.6457
2 26.4701 6.92237 13.8322
1 27.2029 10.289 11.6725
2 3.91615 9.09926 16.9173
1 6.73087 10.3161 10.7303
2 6.97222 11.8159 13.1724
3 14.4751 10.2301 12.3242
2 18.859 9.92076 13.5185
2 19.4406 6.93452 13.4558
2 22.2723 8.59141 12.2021
1 0.494479 11.8547 14.4704
2 0.207377 13.4483 9.15387
2 4.53415 13.0472 11.2053
1 7.58067 13.9455 11.4886
1 10.9214 13.5329 12.4357
1 9.62557 11.2824 11.487
3 15.5786 14.5996 13.8461
1 22.4609 13.1461 9.72707
2 17.491 12.3876 14.6201
2 22.513 15.717 10.9368
2 26.3277 17.3951 11.5992
2 2.30549 17.1003 10.8932
1 6.91137 14.7234 14.265
2 9.11161 16.5524 13.1979
2 13.9762 16.9323 14.0165
2 17.4788 18.4372 11.9724
2 20.4916 17.2261 8.70093
2 20.2494 13.3095 11.8919
3 23.6208 18.628 11.3315
2 1.87921 19.5058 12.2832
1 3.7722 18.772 8.82578
3 7.83871 19.3845 13.2173
2 10.4905 19.9952 14.7285
2 13.6813 18.9226 16.9442
2 17.0802 21.2817 13.7399
3 20.0381 17.7391 12.3057
2 24.5941 21.3371 11.1031
2 26.0153 20.4674 8.49072
1 2.37546 21.9054 10.3881
2 3.14057 22.197 13.824
1 3.51583 20.0748 16.0224
1 8.88005 24.9011 10.4501
2 13.8267 22.8509 13.4212
1 17.1738 23.7655 14.5987
2 19.6494 23.8993 12.7244
2 22.7612 25.7625 13.8935
2 28.2813 21.6545 11.7632
2 27.779 26.8673 14.0449
3 3.02482 25.8763 14.2716
3 7.03753 23.9218 14.512
2 8.85543 26.387 13.2025
2 12.3711 25.0087 14.3586
2 15.616 27.8967 11.5665
1 17.3439 25.2955 11.909
3 21.3889 25.8691 11.3395
2 25.3514 24.8773 11.8426
2 1.65324 1.63333 15.3227
3 2.9811 27.5913 18.3758
2 5.11289 26.832 15.5757
2 7.97296 28.2199 17.3409
3 11.3218 27.6499 16.9798
2 14.1657 28.4589 16.2024
2 21.8156 3.96908 18.2421
1 22.0393 2.11221 15.2922
3 27.6182 0.341738 15.9069
2 3.20267 2.16511 19.3203
1 2.27043 4.1122 13.9702
3 8.18297 2.40982 16.5185
2 10.2703 5.01737 12.6955
1 12.8956 3.99038 16.8276
3 13.5272 0.904467 19.1733
2 18.4117 1.40877 15.2954
2 20.4968 4.4088 13.9961
2 23.9917 3.98349 15.6307
2 27.3517 6.09693 16.4714
1 2.41267 7.02957 20.8463
3 10.2652 8.44372 16.0576
1 10.2296 6.12248 18.5263
2 11.6527 9.70278 13.6635
2 14.12 10.7222 16.0835
2 14.7136 2.80226 15.1515