729
Atoms. Timestep: 30000
3 27.6705 20.648 8.57011
2 7.07535 3.37216 10.4949
2 10.7706 4.69532 19.8288
1 10.302 2.46654 22.4756
2 1.25004 22.5891 4.23174
2 9.68612 20.5818 18.341
2 23.9212 0.218261 1.17212
2 1.38497 14.2529 0.480868
2 18.3318 2.56142 28.4524
2 0.449809 27.3016 27.8404
3 6.29446 22.8429 8.61841
2 3.14592 1.28654 24.9232
2 4.68883 26.403 20.3382
1 16.3656 22.7389 18.2588
3 14.4558 15.7503 26.4662
1 26.5674 4.1209 1.11697
1 23.7042 17.4893 27.4416
3 13.3494 21.8808 27.0475
1 27.4659 24.1369 18.0439
3 7.23035 5.52606 7.99124
2 6.29048 11.1095 0.878695
2 16.299 6.27128 25.7795
2 18.9019 15.6588 24.1592
3 13.0869 3.47248 21.6599
2 18.9976 5.74377 27.0618
2 21.0036 3.6939 23.0327
2 21.8291 7.52601 15.2839
2 27.4075 1.62318 2.22201
3 9.70501 7.12937 28.5974
1 16.0832 26.8947 5.99884
1 21.0347 6.92776 22.5021
1 8.43948 0.458116 24.598
1 11.6869 8.79055 15.2868
1 10.6919 2.38589 4.47677
2 1.04991 3.63005 0.288398
2 2.09928 22.0183 24.0536
1 7.72092 4.01967 5.07636
1 4.28651 19.9372 14.8126
3 4.88215 4.47829 26.2574
1 15.7757 1.57988 23.9686
1 16.2698 12.29 2.75033
2 25.9679 18.4593 26.1306
2 23.7789 4.42092 1.71092
3 17.0327 19.9819 23.1635
2 16.9621 26.2556 3.76453
2 4.76357 11.8403 26.7969
3 13.8652 11.2675 10.4132
2 8.87527 18.1573 0.0840837
3 4.21523 19.6707 9.70405
2 27.861 13.7824 26.1605
2 23.3487 20.4426 25.265
2 20.389 8.37527 4.69488
1 24.2715 13.6686 26.8717
2 25.4128 15.8638 0.373697
2 25.1803 1.18077 26.6103
3 2.66217 24.4134 18.2113
3 3.46473 2.48094 5.35343
2 19.179 12.3902 7.73994
2 20.2361 10.2316 24.1421
3 0.0114911 3.4185 26.2268
2 24.3497 6.10172 23.3004
1 24.8509 20.2009 27.7367
2 21.1856 18.6828 27.1414
3 2.27608 25.7032 8.539
2 27.1491 26.2129 22.9649
2 5.35272 11.6746 20.59
2 20.0364 21.802 0.0428172
2 13.0553 28.0377 5.71121
2 14.6514 19.5129 7.03655
2 28.5397 18.2284 16.0281
2 8.61981 24.2667 9.24894
2 17.205 28.4333 11.5551
1 0.03513 19.2421 4.16
2 0.124173 2.93653 5.26827
2 9.45484 23.7328 25.9477
2 0.170197 21.491 26.5862
1 19.5735 25.2423 4.94374
1 22.3013 23.0664 23.9931
2 11.9708 22.2349 4.57742
2 24.6792 24.9399 2.57038
1 28.5061 11.767 28.4037
3 4.76329 4.48168 13.1791
3 9.05382 0.531074 16.3241
2 6.52029 2.48843 6.90915
2 6.65996 7.22032 25.6922
3 0.349412 4.36002 9.8087
1 18.6926 11.0236 10.1963
2 21.7836 24.5791 10.1595
2 11.2829 17.6349 5.72177
2 1.42122 14.2717 5.57233
1 25.2581 1.83537 3.6406
3 21.1086 27.9034 10.9791
2 15.6437 3.88655 2.80966
2 10.0623 6.79805 8.91914
2 28.2365 25.8567 6.09573
2 14.1835 20.6499 23.9036
1 26.3095 1.62427 22.5368
3 22.8822 1.9772 7.61222
1 3.64817 16.5724 5.8431
3 15.2727 9.31261 15.6796
3 1.75308 7.18421 9.47017
2 27.488 6.08943 7.86346
1 8.03979 8.73717 2.07387
3 11.9185 27.4034 19.496
2 16.8802 5.71652 7.34403
2 22.275 23.3988 26.8604
2 22.4667 2.33789 3.96283
3 5.83337 11.8219 24.0143
1 15.7957 4.70489 12.744
2 6.0688 6.62117 11.1083
2 17.8177 9.99489 5.49593
2 15.781 7.95363 4.57583
2 10.0568 15.4334 10.6209
2 16.2127 8.63365 28.3238
3 25.8492 2.12991 8.07683
3 4.33543 6.21111 4.88204
1 22.382 3.19814 25.2345
2 21.1511 5.67464 5.83967
3 6.07311 27.0286 8.85872
2 12.3871 16.8468 2.8558
3 21.7089 11.6462 8.8929
2 22.1038 14.4091 9.197
2 23.6717 20.4181 6.98077
2 18.5556 8.22558 7.57877
1 16.484 0.338618 0.61572
2 27.4851 20.5887 22.803
2 18.8676 19.3815 1.47602
3 9.06167 0.0754659 11.5828
2 3.9794 11.9458 5.83628
2 19.1321 23.2687 21.6978
2 21.2852 9.87957 27.5179
3 23.5662 22.6459 4.32633
2 25.4776 10.6701 26.5272
3 23.3766 11.609 15.0123
1 20.793 3.30754 28.6372
2 0.234219 0.429417 8.63768
2 13.0715 14.2758 3.7523
2 25.7232 25.1255 15.8872
2 23.0211 15.7676 25.3474
3 20.9496 19.3198 7.77071
1 25.7969 7.06799 4.65477
1 26.0582 13.5673 6.71798
2 22.6449 10.7534 17.9538
1 27.8169 13.1238 3.44489
1 20.1521 16.0056 13.1366
2 26.5295 23.402 9.78406
3 3.91663 27.6554 3.58824
2 13.64 11.1172 1.26088
2 24.4979 21.0526 10.4348
2 28.1095 22.7871 20.3103
3 22.5302 26.8638 3.0079
2 19.771 28.1828 5.5276
2 1.01474 18.2042 6.6118
2 24.7524 18.2578 15.263
2 9.906 12.4718 28.0489
2 27.8153 2.48098 15.3788
2 6.91659 21.2247 6.1002
2 11.6915 0.474529 27.1125
2 20.7431 12.1146 21.4975
2 22.9426 25.079 5.83624
2 6.02798 8.02533 6.4229
2 0.626191 6.21442 25.708
1 22.1315 20.4586 11.8556
2 9.13929 19.3847 8.5674
2 25.2671 26.132 27.1963
2 8.96352 28.3584 8.01093
2 11.6379 18.3362 25.5442
1 11.0841 14.5001 1.79864
2 15.6934 20.2656 26.2444
2 26.0384 4.75927 27.0855
2 3.2487 28.5587 6.62436
1 26.7376 23.6549 3.97995
2 5.02552 28.2042 11.8005
1 1.03196 8.90531 23.5205
2 15.5281 1.93253 14.3898
3 11.4616 27.3971 0.555758
2 18.5569 6.81855 22.5101
2 5.63566 2.23777 3.31698
1 23.3634 7.91764 3.63705
2 22.4301 4.70376 19.3281
2 23.1323 28.5333 5.254
2 11.1557 5.26995 13.1643
2 11.5195 11.6769 13.5947
2 6.83677 1.5187 13.0148
2 14.4104 0.0759629 20.6259
1 19.3386 6.16315 10.4755
2 19.798 3.23388 8.72805
2 24.5054 8.31451 6.56699
3 17.8549 5.48504 3.98182
2 28.2413 8.59349 0.0318006
2 26.0991 12.0725 1.52128
2 14.0915 13.8821 28.5748
1 8.45321 15.3875 12.64
2 15.1812 11.572 20.4799
2 23.3695 10.966 2.79871
3 14.5101 8.24901 7.43025
3 26.7811 9.22726 2.85443
3 16.9031 1.99021 20.1493
1 23.2878 3.52034 21.6287
1 16.1056 20.9608 0.787842
1 14.9356 15.9155 1.98332
1 23.0558 4.50929 11.6458
2 13.1851 4.18285 11.2221
1 23.5101 10.4825 28.5767
2 4.50065 25.006 10.1943
2 23.5728 17.0497 4.9984
1 0.809332 11.2556 6.06179
2 23.5213 18.2898 10.0112
2 4.36769 15.1059 8.81568
2 3.23016 23.9514 2.22676
2 7.21164 17.0346 11.0292
2 27.3115 12.9724 20.4577
2 8.34013 16.6598 7.1453
1 15.7822 14.211 8.31108
1 5.55135 13.2004 13.5223
3 18.109 15.2817 1.81383
3 16.3264 21.0395 5.13025
3 4.75835 22.6167 4.37877
2 9.05274 6.14968 2.73628
2 20.7514 9.24712 10.7541
3 12.1058 20.4021 6.61011
1 15.6086 9.68133 18.4684
2 20.8868 13.5429 5.78543
3 14.3116 27.4004 26.4728
1 26.9117 8.37581 9.70416
3 22.956 25.5661 13.1515
2 26.903 19.5227 6.06011
2 8.41135 9.95956 26.9472
2 18.0708 19.8643 11.7829
1 7.33937 26.694 3.87421
2 3.33794 19.2484 24.6669
2 15.8734 7.29792 11.0154
2 25.3389 24.9173 12.0837
3 24.8388 19.2742 23.271
2 26.1602 23.0378 6.54538
1 6.14963 23.1331 14.7258
3 13.133 1.42464 12.2323
1 15.9961 5.99692 0.821329
2 14.6395 24.957 19.5113
2 11.4864 4.14671 2.71922
1 13.6012 16.578 6.91879
1 0.201181 25.075 14.9387
2 14.8455 11.6642 13.0557
2 2.65318 27.1616 16.3122
2 6.18405 14.9577 16.0143
3 0.372094 5.33635 3.35889
3 15.1549 23.2393 7.81454
2 19.5527 22.8532 6.78753
3 19.1939 0.237993 8.62728
2 20.5318 1.25297 13.0978
2 20.979 25.6762 18.644
3 27.0215 28.0993 25.3565
3 7.54449 4.31558 21.8495
1 3.76345 10.9246 14.1686
2 13.2442 14.1703 7.74118
2 11.8391 10.2677 8.15333
3 8.31703 16.4737 17.6582
2 7.3515 3.33251 15.4391
2 25.1266 11.453 8.52439
2 25.1731 4.21359 13.4197
2 1.34956 1.49313 20.2411
3 5.78377 1.43422 18.4202
2 4.96988 2.62045 28.1044
2 2.30594 13.1688 8.5609
1 22.1674 16.4437 11.2802
2 9.80087 0.788152 2.14771
2 28.1088 9.11725 5.7581
1 6.41194 15.9906 5.42895
2 13.2457 0.772087 9.61641
2 24.6573 9.30564 10.3886
1 10.6903 19.0218 10.6684
3 1.3731 19.9674 13.7393
3 9.7273 13.8116 5.49162
2 6.70041 13.4675 6.2101
2 17.8997 3.46327 11.2997
1 20.3173 15.3817 26.6225
2 26.2172 11.3553 5.00695
1 23.7636 16.9528 2.14412
3 6.31602 10.9378 8.24036
1 28.0702 15.5343 14.7037
2 1.33489 15.0492 17.5398
2 22.5695 13.0828 0.713033
2 8.41406 21.2858 14.7106
1 16.5164 9.3005 9.32468
2 15.7292 18.309 21.3189
3 14.6602 4.94331 9.16189
2 0.48085 9.39158 10.7663
2 13.3242 8.58486 25.2888
2 8.81006 10.4273 21.1955
1 7.32683 14.7334 9.34946
3 11.2413 16.6668 27.9246
1 17.8208 17.0387 12.4844
2 9.59046 10.1487 16.866
1 28.0582 12.8726 17.8671
2 22.9061 8.27355 20.9947
2 2.55905 17.4332 9.60278
1 26.9429 16.2796 5.78809
1 4.41169 18.013 3.81521
3 5.79582 18.9649 26.3681
2 6.6358 25.4475 6.36063
3 6.64418 3.0426 24.2502
2 16.2636 12.8159 5.06178
2 13.159 11.4001 5.08246
1 10.8798 10.8807 19.4682
2 18.3382 25.6698 7.35371
3 19.973 17.159 4.3307
2 23.0818 19.6428 0.979288
2 24.9144 14.6152 3.27249
2 13.7839 21.8768 1.20591
2 4.49631 6.8067 -0.0823944
3 21.9224 16.3771 15.4628
2 16.5547 13.0246 10.6544
3 18.1878 10.7391 21.236
1 26.9218 23.1479 14.1403
1 3.92183 0.413734 14.3295
1 25.4951 21.4743 18.0791
2 6.29292 4.83244 1.78559
1 14.6196 11.133 7.32493
2 15.0512 26.4441 0.383734
2 17.8541 19.1747 7.41894
3 18.2627 0.234289 2.87034
2 9.65443 25.7471 3.32216
2 28.2448 20.1055 19.4962
2 8.93754 27.2211 28.2266
3 10.1468 12.3295 10.2653
1 9.55607 7.27932 11.4817
2 9.73648 3.51466 7.07288
2 9.77283 18.404 13.0066
2 5.50296 27.6289 16.2729
2 13.8529 14.572 14.6559
2 20.1686 24.1958 14.8776
3 11.8145 25.2442 13.3087
2 20.4904 27.7672 21.2467
2 24.6946 4.76159 17.2051
3 10.2549 11.5974 3.70477
1 4.57927 20.9613 22.4337
2 10.6401 7.1559 25.5854
2 8.71357 8.1174 13.9147
2 6.02863 9.65781 14.5342
2 0.0951527 27.6682 13.8962
1 26.7973 27.4228 11.6507
3 11.816 9.0544 11.143
2 25.8392 9.76389 16.0643
2 8.26798 3.03356 18.3073
2 11.5838 21.8608 10.8631
1 15.2762 19.607 12.3729
3 13.3381 15.1247 11.0495
3 17.3026 1.58144 16.7138
3 20.9405 26.5078 8.1236
2 15.2659 7.59548 20.0481
2 13.2355 19.4285 16.2211
1 18.5663 4.4505 24.1934
2 13.5158 7.65993 12.9409
1 9.27222 26.0872 6.75841
2 11.6997 24.2135 0.0320324
3 17.4467 9.91425 12.4492
2 18.13 10.9459 18.4825
2 24.8291 5.1325 8.96183
2 17.0486 12.1826 15.755
1 22.5708 1.20305 27.365
2 5.63514 18.074 7.31999
2 4.50412 18.937 18.8207
1 10.7303 21.021 25.8515
1 8.77069 22.9682 12.1296
1 2.62846 19.5906 16.6938
3 0.328224 11.1773 12.8086
1 4.16439 17.1408 15.6959
2 16.298 16.3683 10.0811
2 24.6404 11.8236 12.2769
2 28.0585 12.4651 8.33836
2 9.57812 23.366 5.37825
1 8.54137 7.2163 5.55439
2 12.826 17.5348 12.3794
2 2.56288 20.5279 20.7276
2 20.903 5.62182 13.3058
2 2.31754 6.01365 11.8646
2 19.5504 13.0539 12.1234
3 17.619 21.3722 9.24153
2 6.80264 18.789 3.4553
1 0.663358 23.8304 9.92706
3 23.9281 10.1639 23.4595
2 8.77951 1.47791 27.2988
2 12.5065 18.7005 20.0877
2 20.5573 19.0305 15.2906
3 22.2266 10.6002 5.89821
2 19.942 16.3832 7.19147
2 15.8349 19.4024 3.05087
1 22.3224 23.1794 7.48742
2 0.45429 26.1786 18.5773
1 20.9472 0.649359 23.6355
1 19.7246 12.9519 1.87144
2 16.0245 2.45174 7.7214
1 9.67953 22.6536 20.2861
2 13.9865 0.69633 1.58004
2 19.6313 3.72104 16.8393
2 26.3762 16.4488 8.37808
2 27.3114 6.39515 15.7972
3 25.8343 25.6378 7.61836
3 9.31101 18.0117 19.9526
2 8.06198 5.27226 12.9373
2 19.621 17.2694 10.4632
2 4.51179 9.37225 10.2783
1 12.0065 25.5079 5.6268
3 13.9283 28.1408 15.3395
2 23.9339 20.0679 19.6304
2 28.0824 24.3416 1.32924
3 12.4943 4.97164 6.97418
2 3.46483 23.1386 7.17279
2 16.5444 5.90231 14.9457
3 13.7533 4.13213 15.7892
2 5.40205 7.16857 18.7204
2 24.4071 0.0501347 9.22404
1 26.0893 2.13888 11.2654
3 3.08363 1.39405 1.97784
2 8.90722 12.7693 16.0591
1 21.9759 13.2576 19.537
3 11.1385 8.25427 19.1296
2 8.52819 9.45534 8.97411
1 8.8219 10.8633 14.0884
3 16.6377 15.0112 20.7242
2 12.363 24.9804 8.45233
2 22.8014 2.09592 10.6866
2 10.514 28.6269 13.8859
2 26.1764 7.07783 11.825
1 24.631 6.24386 20.3321
3 14.957 17.6516 14.4491
1 9.12216 6.22076 21.2078
2 2.36863 14.9796 14.4904
2 7.22952 14.2971 19.4527
2 15.7416 3.85765 18.1044
3 8.64879 5.26637 25.0425
1 1.12419 13.4262 11.1327
2 27.1831 3.18342 20.2103
2 13.4381 6.58638 16.9903
3 15.4041 14.1754 17.422
2 3.59634 22.5863 16.1441
1 1.69696 11.3867 17.2282
1 27.9984 10.5776 20.8886
1 15.9986 1.14098 9.89372
2 8.94558 12.8736 24.7169
3 1.74409 6.30028 15.5235
3 22.5505 15.5871 21.7248
2 26.0064 4.42713 4.42201
2 4.166 21.86 12.892
3 13.001 17.2368 22.3134
2 4.68191 17.363 12.8281
3 5.15237 25.9834 26.858
1 17.3645 18.841 14.8582
2 26.4899 16.3537 23.1859
3 27.7966 5.01509 13.3546
2 2.87008 9.59089 6.88594
2 3.47278 20.1288 4.81791
2 2.86548 1.37107 17.8571
3 14.1643 23.6664 16.1341
1 7.14785 11.4383 17.9594
1 19.0448 14.668 9.66818
2 10.4793 15.609 15.4893
1 1.46096 9.46298 19.8808
2 1.95962 26.9797 11.1329
1 19.605 23.4666 18.8053
3 6.05284 21.1538 17.7528
2 6.50905 18.9164 16.3578
1 10.1377 19.3127 22.837
3 20.752 18.2047 24.1054
3 19.3435 21.3741 4.14511
1 18.5872 3.18371 14.2858
1 22.7754 22.5892 13.4206
2 25.432 15.7054 15.1936
3 8.11731 18.8843 24.4619
2 0.191912 21.5618 16.2182
2 6.35927 25.221 0.912134
3 3.98935 8.45851 21.258
1 15.4515 27.2239 17.7167
1 15.2935 19.2955 18.2194
2 19.6402 21.0949 24.2829
1 24.4443 27.3168 19.2847
2 3.71825 11.7617 11.5623
1 27.7009 24.7003 27.4387
2 4.1004 23.3657 20.7755
2 6.74632 24.8131 17.2281
2 9.20147 26.6606 18.1119
1 7.01407 9.59333 11.7987
3 13.4221 3.62941 0.588463
2 10.6076 2.37071 10.9024
1 21.9302 3.82848 15.243
2 4.54293 0.782622 21.3981
2 1.08327 23.5795 12.874
2 22.4827 5.89393 27.374
2 13.9544 24.0249 25.0694
1 7.67107 21.3308 27.2633
1 13.6174 5.69642 4.03736
3 10.5444 26.5861 9.68336
2 7.73896 21.578 21.9502
1 25.4361 3.54864 24.3503
2 14.8106 20.9894 9.92145
1 25.3592 2.2987 18.7766
2 21.7011 22.1782 19.5839
1 10.7764 5.95338 17.1856
2 8.27078 26.6252 25.1479
2 11.866 26.0075 16.1225
2 20.7533 0.0711513 1.04494
2 7.0994 25.3525 12.7667
2 1.47959 6.56808 5.51875
3 7.96239 9.58153 24.2645
2 24.6696 0.241571 12.8778
2 1.79987 12.3204 20.5567
3 1.01643 14.498 22.8098
2 1.41166 9.71383 15.193
2 22.2432 6.44605 9.51281
1 22.8292 7.03317 1.46019
1 19.4408 24.9683 23.8414
2 12.9359 10.5576 17.419
2 19.449 8.31385 16.7072
2 1.0727 28.1206 2.66681
1 25.1877 17.1558 12.4104
2 3.24218 20.0911 28.498
2 4.26695 14.5612 24.8856
2 8.15393 7.93866 19.3191
3 22.7209 23.6025 17.0982
3 22.3338 7.53288 24.917
2 14.8558 1.50061 26.9244
3 18.0187 12.6204 24.1949
2 1.92413 5.67454 19.4624
2 13.6351 16.7473 18.0082
3 24.808 14.5009 19.6102
2 26.4537 13.2458 23.9422
3 2.77144 7.7853 17.8334
3 5.56618 14.4868 21.8944
2 1.39028 17.0408 20.8187
2 1.27106 21.217 10.8485
1 16.5994 14.0817 13.7008
2 24.4184 22.0589 15.68
3 5.29236 10.5436 3.38037
3 25.907 28.1019 15.4093
2 12.5847 17.8002 9.27014
3 3.56692 16.8873 23.2236
2 18.9113 5.71756 20.018
2 27.3257 15.4869 11.9572
1 11.4728 13.2911 16.1288
1 20.7425 10.8797 13.0423
3 0.175221 21.3135 1.75769
3 3.83859 13.977 18.4771
2 21.2941 22.9482 2.76169
2 8.04287 4.73959 27.7173
2 7.71338 20.9498 10.561
1 7.2728 19.3106 13.2405
2 23.4861 14.9639 13.3568
2 16.8789 26.7466 26.1192
3 28.0496 17.9577 10.2555
1 25.0621 14.6947 10.6947
2 26.594 18.1147 2.78978
2 7.43124 13.1498 11.6106
1 2.97274 0.583001 10.1291
2 15.3145 21.5389 14.0916
1 9.45457 -0.0610375 4.69582
1 17.5475 25.0874 19.583
3 19.8316 3.07399 6.02692
2 26.9406 27.9944 18.3894
3 8.16311 26.0705 15.4461
2 14.1388 26.2223 23.1673
1 9.39478 23.0977 23.178
2 5.28286 15.6703 1.78496
3 13.9176 23.1683 12.2763
2 18.9368 23.1359 26.2998
2 24.1191 11.3738 20.6703
2 19.8415 27.5273 15.181
1 21.4482 6.99722 18.3491
2 12.0677 7.47432 5.38477
2 11.4976 7.88009 21.9661
3 4.77945 22.9417 28.1924
2 5.4657 28.2801 24.3074
3 10.1701 23.2079 16.624
2 16.3091 10.3332 23.9033
2 21.9791 27.6034 25.9636
1 1.69037 7.33948 21.8256
3 28.2183 3.97517 17.6201
2 28.4604 1.84544 11.9921
2 2.02521 4.54738 22.8078
3 9.16169 13.5039 21.8744
1 10.14 21.0075 28.483
1 17.8084 0.560979 14.3394
2 17.954 27.8179 18.6169
2 11.9641 1.76317 16.9731
1 25.2868 9.16294 19.6531
3 24.8196 2.16753 15.3598
3 19.3705 0.176572 27.1996
2 13.1619 0.949145 23.1691
3 21.2072 0.886333 16.8734
2 9.21642 28.0069 21.4544
2 16.8631 23.1056 2.57077
1 15.8325 15.2861 24.0812
3 18.2239 8.33068 25.1763
2 21.0911 13.0947 16.352
2 5.20715 4.29846 20.2283
1 23.1455 5.23299 4.19566
2 4.4591 24.7832 23.6503
3 6.77718 13.2441 3.10765
3 2.82891 14.7907 3.12321
2 18.6219 19.0064 20.6685
2 14.2738 27.0504 12.6774
2 18.7905 1.90477 24.9701
2 24.9124 8.09576 0.125721
3 3.88493 6.57991 23.7074
2 18.0977 24.68 12.9276
2 2.07474 27.0948 25.5716
3 3.08304 10.6439 22.9219
1 6.03321 18.3269 0.929221
1 3.92079 8.23219 12.9085
2 1.62671 15.6934 25.2531
2 11.6711 21.8721 22.8956
2 17.1233 16.5414 4.51914
3 24.4861 24.8887 24.5323
1 21.8553 26.1495 23.1352
2 4.69159 11.1965 17.1166
2 7.62185 15.6963 27.961
3 8.41332 15.9783 24.9703
2 10.0662 16.2899 22.2401
3 14.4946 23.5243 4.86426
2 21.2171 15.7486 0.606437
3 28.4214 18.96 25.1188
1 13.8875 5.40108 19.5148
3 26.4908 8.09142 26.4455
1 18.6284 19.7729 27.3038
3 27.2292 17.9772 20.9472
3 1.57017 6.47985 0.241748
1 1.93913 17.0159 12.5413
3 14.2707 11.284 26.4322
3 20.9622 25.9295 28.5159
2 17.3839 16.7927 16.8506
2 15.704 24.9786 10.3647
2 10.6354 9.95326 1.06959
2 26.7296 19.3689 12.906
2 6.68835 16.8562 22.8226
3 0.152837 0.129194 5.87071
3 16.3749 22.3763 21.5976
2 12.0858 21.5305 15.0536
1 20.657 19.4627 19.0144
2 22.3926 18.6584 21.5427
3 0.974453 24.1773 22.3824
1 27.3336 19.3492 0.329411
2 4.71982 6.41981 15.0293
2 2.59294 25.3687 27.9445
2 16.0792 17.0806 28.3757
3 6.87288 26.3429 22.5376
1 24.1359 1.45699 23.9643
3 26.343 27.4613 2.21443
3 20.2811 21.4607 13.9539
2 22.6386 1.36085 19.8117
1 22.5558 24.441 21.0902
3 26.2094 22.1953 25.4146
1 11.3312 25.5665 24.9834
2 26.0431 21.1672 2.33487
3 13.8405 9.57002 21.979
2 17.7646 20.47 17.3102
2 17.7357 26.2688 22.1133
3 18.5301 24.3746 10.3621
3 24.6677 27.4899 22.0472
3 8.90484 24.0401 1.00796
2 17.2668 11.2551 26.9323
3 7.15128 28.2723 1.52473
1 9.98299 3.7561 15.8617
1 4.39694 3.19307 22.6734
1 13.1797 19.4994 3.39498
2 14.0119 25.6564 2.89779
2 23.485 27.5102 16.8793
3 15.5739 0.688587 5.19366
1 4.35836 25.9024 12.982
3 1.93595 21.0638 7.83558
2 12.1871 19.322 0.37844
3 8.27002 6.41206 16.4023
1 18.5761 13.9874 4.43131
2 13.3791 6.72167 0.814731
2 16.1148 3.74141 22.2047
2 19.3804 6.5223 1.7447
2 19.8042 3.22987 2.91673
2 27.5335 6.34709 19.4408
2 26.514 8.71776 22.7457
3 14.7075 6.69935 23.4503
1 19.9813 11.4208 3.94447
3 13.162 8.94461 3.20729
1 11.0334 22.7529 8.47303
2 10.9386 2.8746 25.3411
2 7.15803 23.9733 20.163
1 13.9594 14.3733 21.6049
2 1.69877 17.361 2.93605
1 28.3894 16.9621 1.16843
2 2.41162 8.48548 26.0205
2 5.77859 21.9419 25.2415
2 14.0215 21.4128 19.3796
2 12.1363 14.4943 25.3001
2 11.7757 13.8694 19.9175
2 0.986212 11.2418 3.37861
2 21.95 12.4804 25.9062
2 25.6925 17.0175 18.5865
2 4.31123 5.21908 7.94283
3 2.53731 26.9065 22.7051
3 10.52 10.1523 23.5267
3 9.9505 19.9124 2.19904
3 7.42955 13.0991 27.3117
2 20.3809 15.3998 18.3422
2 27.2814 12.3927 15.1747
2 24.9953 24.3022 19.2812
2 7.04637 21.3658 1.28182
2 1.06018 11.5844 24.6076
2 1.43039 18.0716 27.7995
2 2.13986 3.52362 14.9419
2 17.9455 10.133 1.74386
2 24.2649 7.67578 17.5052
3 17.4938 24.5916 28.2398
1 20.7999 9.09327 1.25677
1 3.81999 14.6349 11.6104
2 24.5086 22.9295 22.4655
2 2.53348 25.4589 4.99435
2 13.7311 12.7649 23.7134
1 20.4099 9.67265 18.9166
3 25.1984 23.1669 28.0601
2 16.8148 24.7957 16.2648
2 28.1214 9.45634 18.197
2 7.91842 10.1915 4.31922
2 8.79886 15.5905 3.02824
2 21.4441 19.3734 4.89444
2 1.50881 3.78293 7.48528
1 12.05 4.92533 23.7918
2 10.5789 24.9793 21.6001
2 0.271207 1.63789 23.9631
2 25.9862 28.4576 5.92251
2 21.0489 21.2887 9.58084
2 13.2466 2.39307 5.68229
2 17.6542 14.6308 27.3116
729
Atoms. Timestep: 31000
3 25.9864 20.4364 7.41725
2 5.74848 3.49895 9.78773
2 11.7714 6.44316 17.9591
1 11.2318 1.85565 20.2693
2 0.232993 22.4883 4.00107
2 8.4634 20.6609 19.368
2 24.6801 27.7594 0.155496
2 3.64317 14.4395 27.6292
2 14.5816 3.04184 0.270352
2 28.332 0.669209 1.00781
3 6.83553 22.3364 9.03982
2 5.25008 4.95431 24.4126
2 5.35134 26.4191 19.6232
1 15.8912 23.4625 19.369
3 14.027 16.0047 25.6035
1 25.9705 5.9712 1.22756
1 23.0299 19.5249 27.2567
3 15.8887 24.2681 26.8137
1 0.492692 23.4726 15.6487
3 8.30423 5.21603 9.49494
2 5.02665 10.1164 2.70385
2 14.6784 4.1936 26.0524
2 19.1535 16.0336 23.9136
3 14.2408 4.73992 19.9845
2 20.6242 5.09079 26.3192
2 19.0806 2.89664 20.7988
2 19.745 8.59259 16.1876
2 27.1311 3.4819 1.88539
3 10.267 5.68222 27.1992
1 14.636 28.5085 4.84339
1 20.0658 7.07578 21.4392
1 10.5651 1.07431 24.1382
1 12.2281 10.2862 15.5727
1 12.0688 0.339772 5.92044
2 2.45529 3.09941 28.4559
2 2.20889 23.2374 24.8543
1 6.64979 3.18604 7.0692
1 3.79558 21.8745 15.4663
3 5.01216 4.50493 27.5629
1 15.5846 0.559579 24.7982
1 16.1233 13.4039 0.612094
2 26.3278 18.7213 27.3382
2 22.1097 3.15817 27.779
3 17.9035 19.6958 22.9435
2 19.5212 26.3908 4.04898
2 4.87056 9.69477 23.5666
3 13.8339 10.9687 10.2469
2 8.83251 18.9735 1.13651
3 4.4662 18.8987 7.93229
2 27.8896 14.9731 25.4745
2 22.7732 20.8571 24.9492
2 19.651 7.90002 5.10792
1 25.6251 12.9241 26.9442
2 24.2557 15.6685 28.2645
2 26.5747 3.19708 26.4975
3 5.14762 23.7485 18.908
3 4.53491 0.686117 2.52543
2 18.1058 12.2222 7.56313
2 19.6005 10.4054 23.2007
3 0.744552 5.10058 27.0873
2 24.2361 5.46519 23.3682
1 24.7586 21.2637 28.1439
2 20.8008 18.584 24.6217
3 1.75417 26.9981 7.91648
2 27.2849 26.011 23.3388
2 5.10354 12.0065 18.7792
2 20.5649 20.329 28.3288
2 11.4497 26.3246 7.11137
2 16.105 17.9768 6.68332
2 1.83014 17.4549 13.6855
2 8.49798 24.9847 9.56941
2 19.4878 27.3653 13.0386
1 2.84234 18.2258 2.54521
2 2.37888 2.47459 3.01414
2 9.58638 20.3746 27.3018
2 28.568 23.3781 27.2359
1 21.6695 24.9301 6.12904
1 19.9173 22.1338 26.0834
2 14.7417 22.7192 4.24052
2 24.4275 25.5669 4.80914
1 0.936792 13.4438 27.1437
3 4.54135 4.59423 14.8002
3 11.0229 1.33887 17.1906
2 6.33897 0.363506 7.78882
2 7.16909 6.39023 22.8028
3 28.573 3.50719 10.234
1 17.545 10.5702 9.46975
2 20.4511 25.3013 10.1684
2 13.026 19.9794 5.84561
2 0.291606 14.407 5.41253
1 24.8491 1.88096 1.17575
3 22.0069 27.2132 12.2446
2 13.9679 3.63994 3.44556
2 10.3445 7.4443 11.0139
2 26.2485 28.0997 6.26609
2 14.1691 21.9833 23.7689
1 26.8631 0.398882 23.433
3 23.4543 1.36046 7.28949
1 2.55224 15.7872 5.43369
3 16.8204 8.89409 15.4324
3 2.5648 6.7625 8.49564
2 0.0208295 5.36938 7.03438
1 6.30962 7.99831 3.90594
3 11.7719 26.4863 19.4747
2 18.3819 4.89096 7.42519
2 22.2855 23.448 26.649
2 22.1233 2.99231 2.63687
3 6.28227 12.0352 23.295
1 16.0105 5.85143 12.6485
2 6.13635 6.15482 11.6366
2 16.8277 10.5425 4.35587
2 14.4872 8.30817 3.67965
2 11.5781 14.038 9.75222
2 16.959 6.79535 27.1567
3 25.7651 2.95779 7.89318
3 4.01524 3.38961 5.28844
1 23.7907 3.57231 25.4201
2 22.0896 4.93044 6.76343
3 5.81288 26.2215 8.88394
2 11.8161 18.1869 3.08788
3 20.5592 10.0702 10.4122
2 21.8791 13.6796 9.65296
2 23.0769 21.3298 6.65028
2 17.91 7.55647 8.1193
1 14.0775 0.0627735 0.105595
2 26.127 20.2172 24.5595
2 20.1671 18.1427 3.05411
3 7.27981 28.4993 13.2876
2 2.45774 12.9285 7.37626
2 20.6139 22.3152 22.9078
2 21.692 9.1775 28.0968
3 22.9578 23.0825 3.32507
2 26.2501 10.2275 26.5121
3 23.5356 10.8433 15.7198
1 17.1075 3.66791 27.7857
2 28.1557 1.72906 6.6216
2 12.2169 13.676 1.98609
2 25.3385 24.6613 15.6287
2 22.3983 16.7521 25.743
3 21.9315 18.9558 8.61996
1 24.0617 8.74576 7.44057
1 25.7632 14.2454 5.75426
2 21.4427 11.1767 18.311
1 27.9437 13.162 3.32344
1 18.1957 15.4748 12.3983
2 0.235778 21.8288 12.0908
3 4.48522 26.5623 4.38837
2 13.6105 11.1099 0.211206
2 24.7897 20.4642 9.96658
2 0.0372414 21.2106 20.5563
3 22.5797 26.6276 1.88967
2 20.31 1.4602 6.18422
2 0.699874 17.6926 4.57117
2 22.4801 19.8287 17.1052
2 8.38453 12.0601 28.3443
2 28.1478 28.3311 18.5181
2 7.27044 20.488 6.93773
2 10.6661 28.6295 27.4326
2 20.3142 12.6637 21.3546
2 23.4683 24.6527 7.91702
2 6.07596 6.64338 7.62819
2 0.585034 6.8348 24.1254
1 22.033 18.7993 12.6436
2 9.12921 18.7704 9.35344
2 26.0059 25.8786 26.1956
2 9.55294 0.202644 7.66155
2 12.8592 18.3911 25.3041
1 10.4146 14.8694 28.191
2 18.7402 23.1608 28.2754
2 26.3046 6.21836 26.6713
2 3.0856 0.704365 5.85863
1 26.1794 22.6377 4.95588
2 5.46549 27.9438 10.9279
1 28.3102 9.1887 22.2657
2 14.3272 1.63089 12.5931
3 11.1797 26.6266 1.53271
2 17.6776 6.33944 23.3172
2 6.30107 1.95396 4.39591
1 24.2826 7.69352 4.18915
2 21.5043 5.10885 20.1753
2 21.9993 28.2491 4.79824
2 12.4914 5.15646 12.6497
2 10.6624 11.7731 12.6899
2 4.68437 1.95707 13.2267
2 13.8637 0.64039 19.4579
1 19.3835 5.22638 11.1692
2 20.8853 3.71074 9.21236
2 25.1885 6.07029 7.99612
3 18.1787 5.91664 3.75187
2 0.477913 6.14993 1.28367
2 27.4597 12.6673 0.533504
2 13.8209 15.81 0.0612876
1 10.4645 15.8732 12.3875
2 13.9407 11.8667 21.1633
2 25.4532 10.1026 4.08949
3 14.7316 6.25527 5.77632
3 24.3883 11.2706 1.61214
3 16.1703 0.46348 21.6449
1 24.112 1.43142 23.8993
1 17.0621 21.636 1.44338
1 15.3318 16.701 2.8895
1 26.0917 7.11294 10.1868
2 13.1722 3.78662 9.89783
1 24.328 9.17032 28.4662
2 5.11499 23.962 11.1108
2 23.4582 16.084 7.42757
1 1.02636 8.63352 4.77568
2 22.7751 16.6361 11.0074
2 6.08232 13.7259 6.07941
2 3.55348 23.8577 3.5934
2 7.35972 15.2579 10.7189
2 26.0706 13.3019 19.6601
2 10.6055 17.7373 6.75051
1 15.8779 15.1868 6.52282
1 6.07753 13.712 13.0109
3 17.9926 16.7821 0.860564
3 16.7876 21.1573 5.46789
3 5.27648 22.1749 5.24418
2 8.29123 5.25903 5.11012
2 21.2124 7.88318 13.5406
3 14.4186 21.2179 7.84576
1 15.7953 10.9896 19.472
2 20.5938 12.0903 6.3604
3 13.0488 27.3332 25.3823
1 27.0188 7.5224 6.81153
3 22.4253 28.0949 14.7243
2 26.9066 19.9787 4.44898
2 6.94249 9.44215 26.7117
2 18.3202 21.2011 12.2436
1 7.6799 27.9483 5.59761
2 3.08344 20.3334 26.8857
2 16.1218 8.18736 11.3737
2 26.4116 23.8269 11.5431
3 24.5162 18.2444 22.6136
2 27.6922 22.5854 7.68252
1 6.4711 24.2478 13.5506
3 11.5254 2.28113 12.0952
1 14.3565 6.14809 1.77468
2 14.7564 25.9539 19.8655
2 9.90855 4.2597 2.98662
1 11.8694 15.3124 7.30664
1 27.23 23.6769 14.1925
2 16.4473 11.5405 11.6936
2 4.21608 0.0181853 17.6392
2 4.55523 15.5205 15.8084
3 0.484627 5.09017 4.20378
3 14.6036 25.3815 8.21021
2 19.8169 23.146 7.96566
3 19.5534 1.23993 9.66139
2 22.9297 1.86746 13.818
2 20.9985 26.3909 18.421
3 28.4091 0.989513 26.6936
3 8.1205 2.68834 21.2907
1 3.51632 11.3831 13.6419
2 14.3863 12.7333 7.73427
2 13.1065 8.0632 7.00247
3 7.85098 16.927 14.9509
2 5.42888 2.39789 16.5997
2 23.9642 12.7262 7.08645
2 26.1157 3.7194 15.0623
2 1.3384 26.6819 20.39
3 2.4535 0.790308 19.8477
2 5.29166 0.953302 28.3062
2 28.3392 12.6756 8.71295
1 21.0475 15.4595 12.7326
2 9.50558 0.736436 3.82838
2 26.8303 7.00505 3.83608
1 7.80697 15.9087 4.80514
2 12.5413 1.15624 8.32158
2 25.9845 9.63111 9.54165
1 11.5526 19.462 10.2502
3 0.488547 19.9146 14.2272
3 10.4294 15.2347 4.30501
2 10.5503 12.7357 6.14082
2 17.5348 3.18245 11.6078
1 21.3679 12.5914 24.7808
2 26.6526 11.5823 6.74509
1 23.7384 15.8665 2.2401
3 5.54083 12.0664 8.2794
1 28.4013 15.8021 14.826
2 0.780768 16.4172 17.5052
2 21.2373 14.2575 2.18156
2 8.00339 21.6878 13.1887
1 14.9605 8.65305 9.00057
2 15.7044 16.4627 21.5773
3 15.729 4.88803 8.83572
2 0.221883 9.98787 9.75341
2 12.7153 8.69298 27.347
2 8.53492 11.959 21.2978
1 8.75919 14.544 7.79909
3 12.2777 18.1085 0.252859
1 16.4797 17.649 12.0721
2 9.72773 9.69846 17.9521
1 26.4753 13.5693 16.6469
2 21.5056 9.2036 20.6893
2 2.99233 16.0493 8.34022
1 25.8391 17.2654 6.87957
1 5.42801 14.515 1.24505
3 5.26095 17.4355 26.6309
2 6.63802 25.429 6.14539
3 8.07171 2.01903 24.0843
2 16.4819 13.5066 3.76092
2 12.7207 11.6927 4.61492
1 10.1147 12.5843 17.3753
2 16.273 27.4416 7.00046
3 21.2176 16.2336 4.54781
2 23.2421 18.6391 1.92924
2 24.5688 13.3875 3.25349
2 16.4292 24.267 2.03485
2 4.70643 7.51525 27.9804
3 21.2611 16.8953 16.4917
2 16.8118 15.6943 9.92719
3 17.0133 11.0416 22.0099
1 24.1781 22.3604 12.9517
1 4.59347 28.3837 14.7881
1 25.7839 22.0406 19.3092
2 6.0199 4.06539 1.63952
1 15.7275 10.1927 7.09978
2 14.3498 26.2357 0.0728671
2 19.8197 19.4047 6.90631
3 19.5037 0.75542 3.48459
2 9.10007 24.7641 3.21614
2 26.0937 19.3549 19.2955
2 8.56292 26.7288 27.7304
3 11.7663 11.4043 8.39888
1 8.16932 5.98057 13.5962
2 9.30804 3.0477 7.52716
2 9.44574 18.3855 12.8424
2 7.55115 28.1079 16.0815
2 14.8588 13.5751 15.1069
2 22.1468 24.2833 13.5294
3 13.7954 27.5256 13.1981
2 21.221 0.96484 22.0545
2 25.2621 5.37047 18.156
3 8.66531 9.82156 2.30762
1 4.54479 20.4281 24.2579
2 11.2642 6.58682 24.4409
2 8.93146 8.99225 13.2931
2 5.71397 12.3297 15.297
2 1.20499 26.4019 15.0757
1 0.322319 0.628441 8.74594
3 13.3519 8.65742 12.0259
2 23.1389 7.44061 15.4086
2 9.63166 3.92149 17.4611
2 10.4833 21.9982 12.1046
1 16.264 20.0024 13.516
3 14.2173 14.1844 10.4939
3 15.6033 2.32115 17.9895
3 19.8164 27.0407 7.59594
2 15.3893 8.30252 20.2276
2 13.64 19.4104 14.947
1 18.2793 3.41028 23.8046
2 14.2485 10.5372 14.0654
1 9.05309 25.3185 6.81571
2 11.704 23.6704 0.404593
3 18.9094 9.55404 12.8823
2 17.7116 14.2596 21.6867
2 26.0136 3.98586 11.3955
2 17.7156 12.1048 15.1662
1 22.8577 0.068883 27.0495
2 6.78919 16.976 7.36361
2 4.4764 17.0384 19.6386
1 12.4682 21.2493 25.7947
1 9.37963 21.7899 9.12295
1 28.588 20.2735 18.0656
3 0.403318 12.3086 11.7475
1 3.16948 18.0878 16.4489
2 15.2185 19.1187 9.30544
2 23.271 11.3403 10.1624
2 26.32 13.1712 10.9163
2 9.36704 22.5395 6.50186
1 8.77347 7.76877 7.22704
2 10.0671 19.3921 16.212
2 2.73879 20.5249 22.0401
2 21.5006 4.36283 12.5889
2 2.89326 5.43496 12.3898
2 19.1646 12.7141 11.736
3 18.5018 20.5568 9.32544
2 6.50108 17.9679 3.34457
1 3.27993 22.0662 11.4481
3 22.7525 12.5879 22.6446
2 9.37023 3.10036 26.9941
2 10.8858 21.0673 20.9174
2 19.8346 17.4296 13.8968
3 21.449 9.05762 7.46157
2 18.9818 15.9822 6.17963
2 16.7774 19.2009 3.33672
1 22.9031 22.2571 9.21586
2 0.156275 24.2357 18.0903
1 21.3253 2.88717 24.3917
1 18.0611 14.1457 1.80737
2 16.1407 1.69289 5.85402
1 10.4591 23.8794 18.6699
2 12.9421 0.631364 2.34637
2 19.3901 3.64047 16.4451
2 27.2199 16.8597 8.9286
2 27.904 7.30807 15.7022
3 27.875 26.9304 9.62915
3 8.39475 17.6832 18.251
2 7.27794 3.30013 14.696
2 19.5972 17.0895 10.4005
2 4.77779 8.54804 9.51606
1 11.6152 23.3288 3.60327
3 14.6756 0.954533 15.6676
2 25.0346 21.2573 21.9739
2 28.6002 25.3125 1.85718
3 11.4485 6.33469 8.41156
2 4.06794 21.6827 7.86836
2 18.181 6.13689 14.3364
3 15.0807 3.88522 14.1954
2 1.57952 7.16029 19.6615
2 24.6853 27.9338 9.14103
1 25.4267 1.71654 12.423
3 2.33859 0.0575169 28.189
2 8.90071 14.2756 13.8536
1 20.9742 14.3161 18.6238
3 12.2494 8.6847 19.589
2 9.27752 9.70127 9.68135
1 8.0441 11.4071 12.298
3 14.2414 13.5538 23.4433
2 12.2193 23.1423 7.17453
2 22.5078 1.07681 10.5616
2 10.1093 0.877906 14.563
2 0.378164 6.6493 10.1604
1 24.0684 5.51585 20.794
3 13.8871 15.9904 13.0443
1 9.52657 6.39972 20.9507
2 1.87633 14.0965 14.2587
2 8.14722 14.6577 17.4424
2 16.5322 5.70391 16.9739
3 9.80439 4.70439 22.9448