
375 atoms
1 atom types
   0.0000000000   22.5618700000 xlo xhi
   0.0000000000   19.5391550000 ylo yhi
   0.0000000000   29.7994950000 zlo zhi
 -11.2809350000    0.0000000000    0.0000000000 xy xz yz

Masses

1 127.603

Atoms # atomic

     1      1    1.2136029873    0.0000000000    1.9866310134
     2      1    1.2136029873    0.0000000000    7.9465300134
     3      1    1.2136029873    0.0000000000   13.9064290134
     4      1    1.2136029873    0.0000000000   19.8663280134
     5      1    1.2136029873    0.0000000000   25.8262270134
     6      1   -1.0425840127    3.9078310000    1.9866310134
     7      1   -1.0425840127    3.9078310000    7.9465300134
     8      1   -1.0425840127    3.9078310000   13.9064290134
     9      1   -1.0425840127    3.9078310000   19.8663280134
    10      1   -1.0425840127    3.9078310000   25.8262270134
    11      1   -3.2987710127    7.8156620000    1.9866310134
    12      1   -3.2987710127    7.8156620000    7.9465300134
    13      1   -3.2987710127    7.8156620000   13.9064290134
    14      1   -3.2987710127    7.8156620000   19.8663280134
    15      1   -3.2987710127    7.8156620000   25.8262270134
    16      1   -5.5549580127   11.7234930000    1.9866310134
    17      1   -5.5549580127   11.7234930000    7.9465300134
    18      1   -5.5549580127   11.7234930000   13.9064290134
    19      1   -5.5549580127   11.7234930000   19.8663280134
    20      1   -5.5549580127   11.7234930000   25.8262270134
    21      1   -7.8111450127   15.6313240000    1.9866310134
    22      1   -7.8111450127   15.6313240000    7.9465300134
    23      1   -7.8111450127   15.6313240000   13.9064290134
    24      1   -7.8111450127   15.6313240000   19.8663280134
    25      1   -7.8111450127   15.6313240000   25.8262270134
    26      1    5.7259769873    0.0000000000    1.9866310134
    27      1    5.7259769873    0.0000000000    7.9465300134
    28      1    5.7259769873    0.0000000000   13.9064290134
    29      1    5.7259769873    0.0000000000   19.8663280134
    30      1    5.7259769873    0.0000000000   25.8262270134
    31      1    3.4697899873    3.9078310000    1.9866310134
    32      1    3.4697899873    3.9078310000    7.9465300134
    33      1    3.4697899873    3.9078310000   13.9064290134
    34      1    3.4697899873    3.9078310000   19.8663280134
    35      1    3.4697899873    3.9078310000   25.8262270134
    36      1    1.2136029873    7.8156620000    1.9866310134
    37      1    1.2136029873    7.8156620000    7.9465300134
    38      1    1.2136029873    7.8156620000   13.9064290134
    39      1    1.2136029873    7.8156620000   19.8663280134
    40      1    1.2136029873    7.8156620000   25.8262270134
    41      1   -1.0425840127   11.7234930000    1.9866310134
    42      1   -1.0425840127   11.7234930000    7.9465300134
    43      1   -1.0425840127   11.7234930000   13.9064290134
    44      1   -1.0425840127   11.7234930000   19.8663280134
    45      1   -1.0425840127   11.7234930000   25.8262270134
    46      1   -3.2987710127   15.6313240000    1.9866310134
    47      1   -3.2987710127   15.6313240000    7.9465300134
    48      1   -3.2987710127   15.6313240000   13.9064290134
    49      1   -3.2987710127   15.6313240000   19.8663280134
    50      1   -3.2987710127   15.6313240000   25.8262270134
    51      1   10.2383509873    0.0000000000    1.9866310134
    52      1   10.2383509873    0.0000000000    7.9465300134
    53      1   10.2383509873    0.0000000000   13.9064290134
    54      1   10.2383509873    0.0000000000   19.8663280134
    55      1   10.2383509873    0.0000000000   25.8262270134
    56      1    7.9821639873    3.9078310000    1.9866310134
    57      1    7.9821639873    3.9078310000    7.9465300134
    58      1    7.9821639873    3.9078310000   13.9064290134
    59      1    7.9821639873    3.9078310000   19.8663280134
    60      1    7.9821639873    3.9078310000   25.8262270134
    61      1    5.7259769873    7.8156620000    1.9866310134
    62      1    5.7259769873    7.8156620000    7.9465300134
    63      1    5.7259769873    7.8156620000   13.9064290134
    64      1    5.7259769873    7.8156620000   19.8663280134
    65      1    5.7259769873    7.8156620000   25.8262270134
    66      1    3.4697899873   11.7234930000    1.9866310134
    67      1    3.4697899873   11.7234930000    7.9465300134
    68      1    3.4697899873   11.7234930000   13.9064290134
    69      1    3.4697899873   11.7234930000   19.8663280134
    70      1    3.4697899873   11.7234930000   25.8262270134
    71      1    1.2136029873   15.6313240000    1.9866310134
    72      1    1.2136029873   15.6313240000    7.9465300134
    73      1    1.2136029873   15.6313240000   13.9064290134
    74      1    1.2136029873   15.6313240000   19.8663280134
    75      1    1.2136029873   15.6313240000   25.8262270134
    76      1   14.7507249873    0.0000000000    1.9866310134
    77      1   14.7507249873    0.0000000000    7.9465300134
    78      1   14.7507249873    0.0000000000   13.9064290134
    79      1   14.7507249873    0.0000000000   19.8663280134
    80      1   14.7507249873    0.0000000000   25.8262270134
    81      1   12.4945379873    3.9078310000    1.9866310134
    82      1   12.4945379873    3.9078310000    7.9465300134
    83      1   12.4945379873    3.9078310000   13.9064290134
    84      1   12.4945379873    3.9078310000   19.8663280134
    85      1   12.4945379873    3.9078310000   25.8262270134
    86      1   10.2383509873    7.8156620000    1.9866310134
    87      1   10.2383509873    7.8156620000    7.9465300134
    88      1   10.2383509873    7.8156620000   13.9064290134
    89      1   10.2383509873    7.8156620000   19.8663280134
    90      1   10.2383509873    7.8156620000   25.8262270134
    91      1    7.9821639873   11.7234930000    1.9866310134
    92      1    7.9821639873   11.7234930000    7.9465300134
    93      1    7.9821639873   11.7234930000   13.9064290134
    94      1    7.9821639873   11.7234930000   19.8663280134
    95      1    7.9821639873   11.7234930000   25.8262270134
    96      1    5.7259769873   15.6313240000    1.9866310134
    97      1    5.7259769873   15.6313240000    7.9465300134
    98      1    5.7259769873   15.6313240000   13.9064290134
    99      1    5.7259769873   15.6313240000   19.8663280134
   100      1    5.7259769873   15.6313240000   25.8262270134
   101      1   19.2630989873    0.0000000000    1.9866310134
   102      1   19.2630989873    0.0000000000    7.9465300134
   103      1   19.2630989873    0.0000000000   13.9064290134
   104      1   19.2630989873    0.0000000000   19.8663280134
   105      1   19.2630989873    0.0000000000   25.8262270134
   106      1   17.0069119873    3.9078310000    1.9866310134
   107      1   17.0069119873    3.9078310000    7.9465300134
   108      1   17.0069119873    3.9078310000   13.9064290134
   109      1   17.0069119873    3.9078310000   19.8663280134
   110      1   17.0069119873    3.9078310000   25.8262270134
   111      1   14.7507249873    7.8156620000    1.9866310134
   112      1   14.7507249873    7.8156620000    7.9465300134
   113      1   14.7507249873    7.8156620000   13.9064290134
   114      1   14.7507249873    7.8156620000   19.8663280134
   115      1   14.7507249873    7.8156620000   25.8262270134
   116      1   12.4945379873   11.7234930000    1.9866310134
   117      1   12.4945379873   11.7234930000    7.9465300134
   118      1   12.4945379873   11.7234930000   13.9064290134
   119      1   12.4945379873   11.7234930000   19.8663280134
   120      1   12.4945379873   11.7234930000   25.8262270134
   121      1   10.2383509873   15.6313240000    1.9866310134
   122      1   10.2383509873   15.6313240000    7.9465300134
   123      1   10.2383509873   15.6313240000   13.9064290134
   124      1   10.2383509873   15.6313240000   19.8663280134
   125      1   10.2383509873   15.6313240000   25.8262270134
   126      1   -0.6068014937    1.0510111475    3.9732679866
   127      1   -0.6068014937    1.0510111475    9.9331669866
   128      1   -0.6068014937    1.0510111475   15.8930659866
   129      1   -0.6068014937    1.0510111475   21.8529649866
   130      1   -0.6068014937    1.0510111475   27.8128639866
   131      1   -2.8629884937    4.9588421474    3.9732679866
   132      1   -2.8629884937    4.9588421474    9.9331669866
   133      1   -2.8629884937    4.9588421474   15.8930659866
   134      1   -2.8629884937    4.9588421474   21.8529649866
   135      1   -2.8629884937    4.9588421474   27.8128639866
   136      1   -5.1191754937    8.8666731474    3.9732679866
   137      1   -5.1191754937    8.8666731474    9.9331669866
   138      1   -5.1191754937    8.8666731474   15.8930659866
   139      1   -5.1191754937    8.8666731474   21.8529649866
   140      1   -5.1191754937    8.8666731474   27.8128639866
   141      1   -7.3753624936   12.7745041474    3.9732679866
   142      1   -7.3753624936   12.7745041474    9.9331669866
   143      1   -7.3753624936   12.7745041474   15.8930659866
   144      1   -7.3753624936   12.7745041474   21.8529649866
   145      1   -7.3753624936   12.7745041474   27.8128639866
   146      1   -9.6315494937   16.6823351475    3.9732679866
   147      1   -9.6315494937   16.6823351475    9.9331669866
   148      1   -9.6315494937   16.6823351475   15.8930659866
   149      1   -9.6315494937   16.6823351475   21.8529649866
   150      1   -9.6315494937   16.6823351475   27.8128639866
   151      1    3.9055725064    1.0510111475    3.9732679866
   152      1    3.9055725064    1.0510111475    9.9331669866
   153      1    3.9055725064    1.0510111475   15.8930659866
   154      1    3.9055725064    1.0510111475   21.8529649866
   155      1    3.9055725064    1.0510111475   27.8128639866
   156      1    1.6493855064    4.9588421474    3.9732679866
   157      1    1.6493855064    4.9588421474    9.9331669866
   158      1    1.6493855064    4.9588421474   15.8930659866
   159      1    1.6493855064    4.9588421474   21.8529649866
   160      1    1.6493855064    4.9588421474   27.8128639866
   161      1   -0.6068014937    8.8666731474    3.9732679866
   162      1   -0.6068014937    8.8666731474    9.9331669866
   163      1   -0.6068014937    8.8666731474   15.8930659866
   164      1   -0.6068014937    8.8666731474   21.8529649866
   165      1   -0.6068014937    8.8666731474   27.8128639866
   166      1   -2.8629884936   12.7745041474    3.9732679866
   167      1   -2.8629884936   12.7745041474    9.9331669866
   168      1   -2.8629884936   12.7745041474   15.8930659866
   169      1   -2.8629884936   12.7745041474   21.8529649866
   170      1   -2.8629884936   12.7745041474   27.8128639866
   171      1   -5.1191754937   16.6823351475    3.9732679866
   172      1   -5.1191754937   16.6823351475    9.9331669866
   173      1   -5.1191754937   16.6823351475   15.8930659866
   174      1   -5.1191754937   16.6823351475   21.8529649866
   175      1   -5.1191754937   16.6823351475   27.8128639866
   176      1    8.4179465064    1.0510111475    3.9732679866
   177      1    8.4179465064    1.0510111475    9.9331669866
   178      1    8.4179465064    1.0510111475   15.8930659866
   179      1    8.4179465064    1.0510111475   21.8529649866
   180      1    8.4179465064    1.0510111475   27.8128639866
   181      1    6.1617595064    4.9588421474    3.9732679866
   182      1    6.1617595064    4.9588421474    9.9331669866
   183      1    6.1617595064    4.9588421474   15.8930659866
   184      1    6.1617595064    4.9588421474   21.8529649866
   185      1    6.1617595064    4.9588421474   27.8128639866
   186      1    3.9055725064    8.8666731474    3.9732679866
   187      1    3.9055725064    8.8666731474    9.9331669866
   188      1    3.9055725064    8.8666731474   15.8930659866
   189      1    3.9055725064    8.8666731474   21.8529649866
   190      1    3.9055725064    8.8666731474   27.8128639866
   191      1    1.6493855064   12.7745041474    3.9732679866
   192      1    1.6493855064   12.7745041474    9.9331669866
   193      1    1.6493855064   12.7745041474   15.8930659866
   194      1    1.6493855064   12.7745041474   21.8529649866
   195      1    1.6493855064   12.7745041474   27.8128639866
   196      1   -0.6068014937   16.6823351475    3.9732679866
   197      1   -0.6068014937   16.6823351475    9.9331669866
   198      1   -0.6068014937   16.6823351475   15.8930659866
   199      1   -0.6068014937   16.6823351475   21.8529649866
   200      1   -0.6068014937   16.6823351475   27.8128639866
   201      1   12.9303205064    1.0510111475    3.9732679866
   202      1   12.9303205064    1.0510111475    9.9331669866
   203      1   12.9303205064    1.0510111475   15.8930659866
   204      1   12.9303205064    1.0510111475   21.8529649866
   205      1   12.9303205064    1.0510111475   27.8128639866
   206      1   10.6741335063    4.9588421474    3.9732679866
   207      1   10.6741335063    4.9588421474    9.9331669866
   208      1   10.6741335063    4.9588421474   15.8930659866
   209      1   10.6741335063    4.9588421474   21.8529649866
   210      1   10.6741335063    4.9588421474   27.8128639866
   211      1    8.4179465063    8.8666731474    3.9732679866
   212      1    8.4179465063    8.8666731474    9.9331669866
   213      1    8.4179465063    8.8666731474   15.8930659866
   214      1    8.4179465063    8.8666731474   21.8529649866
   215      1    8.4179465063    8.8666731474   27.8128639866
   216      1    6.1617595064   12.7745041474    3.9732679866
   217      1    6.1617595064   12.7745041474    9.9331669866
   218      1    6.1617595064   12.7745041474   15.8930659866
   219      1    6.1617595064   12.7745041474   21.8529649866
   220      1    6.1617595064   12.7745041474   27.8128639866
   221      1    3.9055725063   16.6823351475    3.9732679866
   222      1    3.9055725063   16.6823351475    9.9331669866
   223      1    3.9055725063   16.6823351475   15.8930659866
   224      1    3.9055725063   16.6823351475   21.8529649866
   225      1    3.9055725063   16.6823351475   27.8128639866
   226      1   17.4426945064    1.0510111475    3.9732679866
   227      1   17.4426945064    1.0510111475    9.9331669866
   228      1   17.4426945064    1.0510111475   15.8930659866
   229      1   17.4426945064    1.0510111475   21.8529649866
   230      1   17.4426945064    1.0510111475   27.8128639866
   231      1   15.1865075064    4.9588421474    3.9732679866
   232      1   15.1865075064    4.9588421474    9.9331669866
   233      1   15.1865075064    4.9588421474   15.8930659866
   234      1   15.1865075064    4.9588421474   21.8529649866
   235      1   15.1865075064    4.9588421474   27.8128639866
   236      1   12.9303205064    8.8666731474    3.9732679866
   237      1   12.9303205064    8.8666731474    9.9331669866
   238      1   12.9303205064    8.8666731474   15.8930659866
   239      1   12.9303205064    8.8666731474   21.8529649866
   240      1   12.9303205064    8.8666731474   27.8128639866
   241      1   10.6741335064   12.7745041474    3.9732679866
   242      1   10.6741335064   12.7745041474    9.9331669866
   243      1   10.6741335064   12.7745041474   15.8930659866
   244      1   10.6741335064   12.7745041474   21.8529649866
   245      1   10.6741335064   12.7745041474   27.8128639866
   246      1    8.4179465064   16.6823351475    3.9732679866
   247      1    8.4179465064   16.6823351475    9.9331669866
   248      1    8.4179465064   16.6823351475   15.8930659866
   249      1    8.4179465064   16.6823351475   21.8529649866
   250      1    8.4179465064   16.6823351475   27.8128639866
   251      1    1.6493855064    2.8568198525    0.0000000000
   252      1    1.6493855064    2.8568198525    5.9598990000
   253      1    1.6493855064    2.8568198525   11.9197980000
   254      1    1.6493855064    2.8568198525   17.8796970000
   255      1    1.6493855064    2.8568198525   23.8395960000
   256      1   -0.6068014937    6.7646508525    0.0000000000
   257      1   -0.6068014937    6.7646508525    5.9598990000
   258      1   -0.6068014937    6.7646508525   11.9197980000
   259      1   -0.6068014937    6.7646508525   17.8796970000
   260      1   -0.6068014937    6.7646508525   23.8395960000
   261      1   -2.8629884937   10.6724818525    0.0000000000
   262      1   -2.8629884937   10.6724818525    5.9598990000
   263      1   -2.8629884937   10.6724818525   11.9197980000
   264      1   -2.8629884937   10.6724818525   17.8796970000
   265      1   -2.8629884937   10.6724818525   23.8395960000
   266      1   -5.1191754937   14.5803128525    0.0000000000
   267      1   -5.1191754937   14.5803128525    5.9598990000
   268      1   -5.1191754937   14.5803128525   11.9197980000
   269      1   -5.1191754937   14.5803128525   17.8796970000
   270      1   -5.1191754937   14.5803128525   23.8395960000
   271      1   -7.3753624937   18.4881438525    0.0000000000
   272      1   -7.3753624937   18.4881438525    5.9598990000
   273      1   -7.3753624937   18.4881438525   11.9197980000
   274      1   -7.3753624937   18.4881438525   17.8796970000
   275      1   -7.3753624937   18.4881438525   23.8395960000
   276      1    6.1617595064    2.8568198525    0.0000000000
   277      1    6.1617595064    2.8568198525    5.9598990000
   278      1    6.1617595064    2.8568198525   11.9197980000
   279      1    6.1617595064    2.8568198525   17.8796970000
   280      1    6.1617595064    2.8568198525   23.8395960000
   281      1    3.9055725064    6.7646508525    0.0000000000
   282      1    3.9055725064    6.7646508525    5.9598990000
   283      1    3.9055725064    6.7646508525   11.9197980000
   284      1    3.9055725064    6.7646508525   17.8796970000
   285      1    3.9055725064    6.7646508525   23.8395960000
   286      1    1.6493855064   10.6724818525    0.0000000000
   287      1    1.6493855064   10.6724818525    5.9598990000
   288      1    1.6493855064   10.6724818525   11.9197980000
   289      1    1.6493855064   10.6724818525   17.8796970000
   290      1    1.6493855064   10.6724818525   23.8395960000
   291      1   -0.6068014936   14.5803128525    0.0000000000
   292      1   -0.6068014936   14.5803128525    5.9598990000
   293      1   -0.6068014936   14.5803128525   11.9197980000
   294      1   -0.6068014936   14.5803128525   17.8796970000
   295      1   -0.6068014936   14.5803128525   23.8395960000
   296      1   -2.8629884937   18.4881438525    0.0000000000
   297      1   -2.8629884937   18.4881438525    5.9598990000
   298      1   -2.8629884937   18.4881438525   11.9197980000
   299      1   -2.8629884937   18.4881438525   17.8796970000
   300      1   -2.8629884937   18.4881438525   23.8395960000
   301      1   10.6741335064    2.8568198525    0.0000000000
   302      1   10.6741335064    2.8568198525    5.9598990000
   303      1   10.6741335064    2.8568198525   11.9197980000
   304      1   10.6741335064    2.8568198525   17.8796970000
   305      1   10.6741335064    2.8568198525   23.8395960000
   306      1    8.4179465064    6.7646508525    0.0000000000
   307      1    8.4179465064    6.7646508525    5.9598990000
   308      1    8.4179465064    6.7646508525   11.9197980000
   309      1    8.4179465064    6.7646508525   17.8796970000
   310      1    8.4179465064    6.7646508525   23.8395960000
   311      1    6.1617595064   10.6724818525    0.0000000000
   312      1    6.1617595064   10.6724818525    5.9598990000
   313      1    6.1617595064   10.6724818525   11.9197980000
   314      1    6.1617595064   10.6724818525   17.8796970000
   315      1    6.1617595064   10.6724818525   23.8395960000
   316      1    3.9055725064   14.5803128525    0.0000000000
   317      1    3.9055725064   14.5803128525    5.9598990000
   318      1    3.9055725064   14.5803128525   11.9197980000
   319      1    3.9055725064   14.5803128525   17.8796970000
   320      1    3.9055725064   14.5803128525   23.8395960000
   321      1    1.6493855064   18.4881438525    0.0000000000
   322      1    1.6493855064   18.4881438525    5.9598990000
   323      1    1.6493855064   18.4881438525   11.9197980000
   324      1    1.6493855064   18.4881438525   17.8796970000
   325      1    1.6493855064   18.4881438525   23.8395960000
   326      1   15.1865075064    2.8568198525    0.0000000000
   327      1   15.1865075064    2.8568198525    5.9598990000
   328      1   15.1865075064    2.8568198525   11.9197980000
   329      1   15.1865075064    2.8568198525   17.8796970000
   330      1   15.1865075064    2.8568198525   23.8395960000
   331      1   12.9303205064    6.7646508525    0.0000000000
   332      1   12.9303205064    6.7646508525    5.9598990000
   333      1   12.9303205064    6.7646508525   11.9197980000
   334      1   12.9303205064    6.7646508525   17.8796970000
   335      1   12.9303205064    6.7646508525   23.8395960000
   336      1   10.6741335063   10.6724818525    0.0000000000
   337      1   10.6741335063   10.6724818525    5.9598990000
   338      1   10.6741335063   10.6724818525   11.9197980000
   339      1   10.6741335063   10.6724818525   17.8796970000
   340      1   10.6741335063   10.6724818525   23.8395960000
   341      1    8.4179465064   14.5803128525    0.0000000000
   342      1    8.4179465064   14.5803128525    5.9598990000
   343      1    8.4179465064   14.5803128525   11.9197980000
   344      1    8.4179465064   14.5803128525   17.8796970000
   345      1    8.4179465064   14.5803128525   23.8395960000
   346      1    6.1617595063   18.4881438525    0.0000000000
   347      1    6.1617595063   18.4881438525    5.9598990000
   348      1    6.1617595063   18.4881438525   11.9197980000
   349      1    6.1617595063   18.4881438525   17.8796970000
   350      1    6.1617595063   18.4881438525   23.8395960000
   351      1   19.6988815064    2.8568198525    0.0000000000
   352      1   19.6988815064    2.8568198525    5.9598990000
   353      1   19.6988815064    2.8568198525   11.9197980000
   354      1   19.6988815064    2.8568198525   17.8796970000
   355      1   19.6988815064    2.8568198525   23.8395960000
   356      1   17.4426945064    6.7646508525    0.0000000000
   357      1   17.4426945064    6.7646508525    5.9598990000
   358      1   17.4426945064    6.7646508525   11.9197980000
   359      1   17.4426945064    6.7646508525   17.8796970000
   360      1   17.4426945064    6.7646508525   23.8395960000
   361      1   15.1865075064   10.6724818525    0.0000000000
   362      1   15.1865075064   10.6724818525    5.9598990000
   363      1   15.1865075064   10.6724818525   11.9197980000
   364      1   15.1865075064   10.6724818525   17.8796970000
   365      1   15.1865075064   10.6724818525   23.8395960000
   366      1   12.9303205064   14.5803128525    0.0000000000
   367      1   12.9303205064   14.5803128525    5.9598990000
   368      1   12.9303205064   14.5803128525   11.9197980000
   369      1   12.9303205064   14.5803128525   17.8796970000
   370      1   12.9303205064   14.5803128525   23.8395960000
   371      1   10.6741335064   18.4881438525    0.0000000000
   372      1   10.6741335064   18.4881438525    5.9598990000
   373      1   10.6741335064   18.4881438525   11.9197980000
   374      1   10.6741335064   18.4881438525   17.8796970000
   375      1   10.6741335064   18.4881438525   23.8395960000
