data (written by ASE) 

216 	 atoms 
2  atom types
0.0      19.712219999999999  xlo xhi
0.0      19.712219999999999  ylo yhi
0.0      19.712219999999999  zlo zhi


Atoms 

     1   2     0.38043213850668178     0.35419851916568806      19.451009470848348
     2   2      3.6186448668188191      19.591930257866274     0.25225326027117512
     3   2      6.9136280473316996      19.545090373933895      19.422748077060977
     4   2      9.8169840946469549      19.417226898177905      19.418899407922027
     5   1      12.930676056372985     0.41701103041694171     0.24249072528190507
     6   2      16.601917445222963      19.361862077528833      19.379556789494767
     7   2     0.22070930844015924      3.5748148719903701      19.514153756503759
     8   2      2.9904471296701187        3.00970515994549      19.512454459626724
     9   2      6.1612404256771161      3.0481958516465788      19.443358172165464
    10   2      10.025094462815275      2.8558682405434705      19.354952892274742
    11   2       13.58225118330059      3.6708557874449741      19.307059222488736
    12   2      15.934798982211275      3.2846360566503439      19.607248039719757
    13   2     0.13618228149908973      6.6981151490304267     0.26682060395647567
    14   2      3.6187878837574381      6.9003109018402666     0.43928279246605584
    15   2      6.5271881908989346      6.3712066829767622     0.26711358628103188
    16   2      9.5778880856298176      6.3249464498111267     0.44023074861349676
    17   2      13.439061155710068      6.9458256767210127      19.298200099449918
    18   2      16.495066344665116       7.023172131832764      19.560319333710041
    19   1     0.36459857118896588      9.5172646460651293      19.492592442644639
    20   2      3.4080451451168718      9.8030771462998203     0.32898871642716987
    21   2      6.7003924827543306      9.5059639454838276      19.613966047091935
    22   2      10.001215341557653      9.8715344017558646      19.486735628788114
    23   2      12.761215419777274      10.048267275326376     0.41349444308734773
    24   2      15.967647024461019      9.7572448331735728      19.662159495233283
    25   2      19.483832695062489      13.148116816290043     0.19608931293817133
    26   2      3.3520548318398578      12.664837174808783      19.489046902690649
    27   2      6.4023792789008116      12.659611762277157      19.496812935593216
    28   2       9.592807076546773      13.298253028192693    0.038575613164040456
    29   1      13.150735316105154      13.186515294502007      19.393812486807157
    30   2      16.863458414235033      13.460901138350181     0.35424267344509336
    31   2     0.33065456065676513       16.42547481267539   0.0070830752129331653
    32   2      3.6897169919982065      15.930652330582511    0.081178465478477402
    33   2      6.3990571087050148      16.747695627388783     0.15038307339826285
    34   2      9.4807729116884083      16.288525171794127      19.472066173964812
    35   1       13.10026948972134      16.760301477028051     0.49904114912923669
    36   2      16.105990470001565      15.968872852362177      19.337676049069088
    37   2      19.346353021816181    0.010646273041207799      3.7707301758496854
    38   2      3.6575794976645142     0.19789628594550812       2.845121115896986
    39   1      6.8742199355162779      19.462711972735391      3.0191638292418252
    40   1        10.2923071062333      19.403191829304038      3.5398527925326162
    41   2      12.891744069516248    0.092829201762509084      2.8116531098154107
    42   2      16.412824848740719      19.516894376671157      3.4926002104869673
    43   1      19.390751140603999      3.5905983152647023      2.7979166348036784
    44   2       3.553855150601033      2.9622396434258502      3.5481085755145672
    45   2      6.6904839950308377      2.9846633795221669      3.0588967825171149
    46   2      10.013239818921214      3.7815299421165109      2.8960591802620361
    47   2      13.034800549351685      3.1937208383928319      3.0481818082209235
    48   2      16.143513481508322      3.3127981097577113      3.6800945283491804
    49   2      19.658701863053807       6.271074084884189      3.0189863450434484
    50   2      2.7893727552574528      6.2356945192637161      2.9904804783403351
    51   2        6.48761532399622       6.533771007401131      3.1599282407891254
    52   2      9.9324903824098048      6.5409971322726719      3.6715235522605454
    53   2      13.376099799029594      6.5706546264810797      3.6477131647664898
    54   1      16.260133431786212      6.8284988958536328      3.2026733335291193
    55   2    0.021964402438503949      9.9210916821732145      3.3477081401493733
    56   2      3.4806665546590487      9.7176822326827601      3.2459699653402336
    57   2      6.2918306572348239      9.9646089432260734      3.6478288321832757
    58   2      10.244536550853244        9.68805663107816      3.5698767890113103
    59   1      13.104849229109616       9.682770734960604      3.1256504395333016
    60   2      16.387711567693437      9.8100764513590129      2.8096295831579239
    61   2      19.518998923762048      12.933098449298287      3.0488453842002907
    62   2      3.3852662703199994      13.120018040167393      3.7646265766550031
    63   2      6.5641001323217667      12.924362245641625      3.3388498645851077
    64   2      10.266141564795941      12.687087913277626      3.0890681803333435
    65   2      13.393713480473176      13.114824933319536      3.7349232386868612
    66   2      16.590049072034862      13.529593373503694      3.1642418441008546
    67   2     0.28322935527602489       16.15556360819247      3.2715776804648198
    68   2      3.5769977912875981      15.995420779337532      3.2656071352528842
    69   2      6.9260559481657182      16.388474988321516      3.3776998946647159
    70   1      9.5330964688685711      16.847520552449431      3.2344845538283002
    71   2       12.76576987080206      16.442446552332523      3.6718288458113384
    72   2      16.061266446918992      16.467393918206078      2.9650980583538837
    73   2      19.304147250764025     0.22379200175362568      6.5673800933439228
    74   2      3.5559108903123917     0.30134610430043307      6.7750769419161641
    75   2        6.70127293852478     0.40444377275555399      6.6191331804127715
    76   2      9.8995393465343344      19.541647596914636      6.6038148227875801
    77   2      13.040297546755315      19.701571529281672      6.2051247737728596
    78   2      16.141432421947808      19.547896444588044      6.5484154356470166
    79   2      19.436566888705485      2.8316031422157364      6.9659288063951372
    80   2       2.984283717292465      2.9951699282593389      6.7046696844212388
    81   2      6.9876603802773261      3.5104717073860106      6.8328644858167671
    82   2      9.7115479852256978      3.5534403070467362       6.315345005983529
    83   2      12.909740178305109      3.5290661805874626      6.3789727030239085
    84   2      16.862406925890696      3.5396559480377046      6.5014881531964557
    85   2     0.33232342914614815      7.0085195815153369      6.5187572352910914
    86   2      2.8043074913482027      6.9309901016030855      6.5265665097617687
    87   2      6.1742110323783468       6.237539665058506      7.0399042766403577
    88   1       9.851737720952519      6.2154145145604609      6.3806412154509049
    89   1      12.677675027431967      6.6440809671253316       6.333947318911056
    90   2      16.438960107550876      6.1261066123820811      6.5588176858820715
    91   2      19.212886256747581      10.070341894808102      6.4498780731365102
    92   2      3.6508630023843325      10.015863943346639      6.1578227769784171
    93   2      6.9500128370523164      9.4171198426369855       6.974766597279551
    94   1       10.14136594110796      10.197579455282058      6.0988041159938406
    95   2      12.696345548581201        9.86182156076325        6.75553074891614
    96   2      16.639864699417547      10.301913675293383      6.2326747993852898
    97   2      19.509769870838689      12.837620964006987      6.6135456382433766
    98   2      3.4413818490510297      12.987184364378109      6.4334213677752281
    99   1      6.4293016940485286      12.838053460383474      6.9451921332875264
   100   2      9.7573282842916971      13.172116880099049      6.9848288911979273
   101   1      13.336259281525381      13.382804066703375      6.5929402166617574
   102   2      16.234645659552644      13.545629327205688      6.3208153995772012
   103   2      19.669965060519285      16.006916554316543      6.5371685024552528
   104   2      3.0098173083939472       16.19857789514155      6.0881595623256421
   105   2      6.7318705997940018      16.812140644782254      6.3094315189118255
   106   2      10.319898719939877       16.60671631060303      6.8044056726667597
   107   2      12.813516131184562      16.921477299820708      6.5479783886178673
   108   2      16.912249304382694      16.340891963514977      6.4490487909955672
   109   2       19.36336247264606      19.383025348163173      10.235168422960719
   110   2      2.9891933090738365     0.26153995781049222      9.9225182163902943
   111   1      6.8316338932519765     0.38637170107153318      10.326256422204036
   112   2      9.7180509734702056      19.420629884163073       9.751499706203786
   113   2      13.522981971232859      19.638517592163453      10.228050266467099
   114   2      15.959441995030691     0.48474712037679679       10.06614667601708
   115   2      19.707967224017068      3.2007190374374783      9.3709780099981526
   116   2      3.5507057175037966      3.3094240799523922      9.7595835839797083
   117   2      7.0535576773079214      3.0348720706688459      10.026713081360887
   118   2      10.176082918993966       3.647760064583506      9.8665203400982833
   119   1      13.404923428909539      3.0433900912928786      9.5654034070726546
   120   2      16.542079729126272      3.0331717984447915      10.056281615554106
   121   2     0.30309199100251771      6.9124263302790538      10.065163490072042
   122   2      3.6534790041605048      6.3535428127690485      10.114451161544363
   123   1       6.315188895281052      6.8767802644385618       10.18024121909426
   124   1      9.3578823978440084      6.1030912485248043      10.037134064256444
   125   2      13.478252301912075      6.8328956184649465      10.346961413320194
   126   2       16.34655955477993      6.5886018300784857      9.4058865091240058
   127   2     0.17785694250973305      9.7272320623912059      9.3946715956674307
   128   2      3.4190715306162245      9.5369305426877808      9.4121520022605978
   129   2      6.1578495305104743      10.352728480345849      9.3668817643733835
   130   1      9.3807761628465904      10.246967696277148      9.4924830306581036
   131   2       13.49008052197575      10.070927143593753      9.4220504566217365
   132   2      16.569255914218743      9.6612614029881154      10.246272476932473
   133   2     0.30638271443544984      13.476526082799667      10.221656643146332
   134   2       3.191879618105856      12.966068104516598      9.8086152329812037
   135   1      6.5704244728857342      13.067870091663092      9.7534038501662508
   136   2      10.126217763550715      13.257009496400677      10.222071672291737
   137   2      13.526303627219827      13.045599309311431      9.4958895139475548
   138   2       16.70596141559648      13.007536439531272      9.5642679829521189
   139   2       19.49251006681688      16.602337961967592      9.7613218707381648
   140   2      2.9604962316442287      16.599768223387404      10.112981668949137
   141   2      7.0604579650593218      16.041802617224633      10.070715545115002
   142   2      10.163700531079146      16.659082475145393      9.9978792119732898
   143   2      13.077613117924351      16.508255423716022      10.211717525864948
   144   2      16.710182513040802      16.671748092475674      9.9833412017686278
   145   2      19.221209377530368     0.30618066331446603      12.971943463377512
   146   2      3.0236783274749079     0.17132768874921311      13.116732908664659
   147   2      6.6385359209018242      19.288020844694334      13.023646875217839
   148   2      9.3637245195934451    0.097905893971392821      12.987966274761416
   149   2      12.950776285658558     0.44367641207516895      12.826007993725725
   150   1      15.953165525162564      19.268150375151201       12.77477515242019
   151   2    0.037190324220450099      3.0057586046707447        12.9571888675687
   152   2      3.2361279663288052      3.2215782295274495       13.14221879851336
   153   2      6.2943681502338169      2.9365789631204517      13.589374025686945
   154   2      9.6653081462119097      3.0690660872412332      13.527365278502478
   155   2      13.305936893781135      3.0008498339133158      13.117123355434993
   156   2      16.359368348332289      3.1009320512907754      13.394304093593041
   157   2      19.261082192857707      6.7291764685237503      13.138426256185886
   158   2       3.144508948650194      6.2996780142223523      13.005399397763107
   159   2      6.1225745064458401      6.9339256069586543      12.698998085644924
   160   2      9.5997019105777017      6.6449172556395224      13.189271116405157
   161   2      13.129411422763406      6.9270727470583271      13.118150282624589
   162   2      16.882410142194423      6.7605523245635428      13.074020079728811
   163   2      19.281380178502435        9.94422835662251      13.622811473849776
   164   2      2.8919825349128763      9.3865962490874519      13.064638062975202
   165   2      6.1451290990774448      9.9137877212566199      12.827197218121846
   166   2      10.271944712881874      10.354589528105468       12.67280693967332
   167   2      13.339021197958356      9.8421613595037059      12.972930616980728
   168   2      16.897900052965891      9.6120059658284855      12.691528810156873
   169   2       19.25638389042976       12.69052646869897       13.61455375056314
   170   2      3.1311105037460565      13.184877010632087      12.645625015630351
   171   2      6.2321218577384858      13.278955174079968      13.037404453767394
   172   2      9.4357153808464815      13.121263437366087      13.046337721581677
   173   1      13.313405059704904      13.099570888882235      12.927821707904272
   174   1       16.19668024042716       12.99724967840481      12.742618198043118
   175   2     0.04573750665707544      16.211537169173852      13.266998247000304
   176   2      3.4145080847307425       16.21532519239242      13.618313242219244
   177   2      6.4754873342555141      16.916044825050093      13.352640895162324
   178   2      10.218641663696099      16.436777506701279      12.877391868013872
   179   2      13.445260170021665      16.663603934615114      12.959844118063621
   180   1      16.545093851069794       16.18040887461051      12.970471273694288
   181   2     0.49835003405309664      19.708776769998902      16.735690551867997
   182   2      3.2796052738404811      19.362247077552528      16.768410096104724
   183   2      6.7036144978414232      0.1419261416435853      16.713761099512155
   184   1      10.131626855810811     0.35791641448022626       16.64946842723662
   185   2      13.440905219319552     0.19128980081924285      16.108080649066533
   186   2      16.075118006141327    0.080099948019833556      16.400844436512845
   187   2      19.646262358818529      3.1430349972464535      16.278070977597036
   188   2      3.0655227789753221      2.8113816147348922      16.200570620611945
   189   2      6.7673285967517005      3.0986335107121326      16.447225252216267
   190   2      9.6555990471766346      3.4276066023338165      16.237402022902188
   191   2      12.916803098467552      3.6162528081555347       16.17963751457971
   192   2      16.712119613233455      3.4141436171298709      15.987845521278814
   193   2      19.546768031510858      6.1711702563810817      16.018116901803452
   194   2      3.3793588463250401      6.4107991846689156      16.853848065893988
   195   2      6.0793486046462473      7.0329215316765801      16.517778706777268
   196   1      9.8979010103728218      6.5278108081530615       16.84886947580431
   197   2      12.914553938683122      6.4980161803202456      16.171114032932422
   198   2      16.054129620396683      7.0456159881955855      16.626078134878593
   199   2      19.366724328225406      9.8384498523824817      16.247950457200741
   200   1      2.8544115478997401       10.04855091225822      16.708968465095548
   201   2      6.5638683135049938      9.5929110359988723      16.896250692630247
   202   2      10.050949883870169      10.112674939037237      16.546317685779652
   203   2      13.629171320934365      9.3991236018046909      16.359812980875596
   204   2      16.285893529346463      9.5458200187609261      16.844795618004454
   205   1    0.054712159868985588      12.986562198649203      16.876003188475316
   206   2      3.4996429020540716      13.303566335443374      16.665549803473191
   207   2      6.9966562769043072      12.843201417106988      16.228278665292287
   208   1      9.6426973774649056      13.523480596756997      16.033626738075792
   209   2      13.141473982821637      13.306238895879595      16.642873982008609
   210   2      16.000669755507683      13.098902112507806      16.503775186175922
   211   2     0.25436216996667527      16.617316497298859      16.202516762713792
   212   1      3.5160381976697712      16.200522505483466      15.927845706684554
   213   1      6.5180070341476037      16.475888664033853      16.707197784897343
   214   2      9.6122285451582723      16.000087826252877      16.919056432287608
   215   2      13.539257592595066      16.194405360297644      16.809548842429923
   216   2      16.280318045506061      16.456305124265175       16.46732360536723
