ITEM: TIMESTEP
100
ITEM: NUMBER OF ATOMS
200
ITEM: BOX BOUNDS pp pp pp
-4.3558933649294573e-01 1.9648549336492945e+01
-4.3558933649294573e-01 1.9648549336492945e+01
-4.3558933649294573e-01 1.9648549336492945e+01
ITEM: ATOMS id type x y z fx fy fz
124 2 2.22534 3.27716 -0.398301 0.143041 -0.196133 -0.215706
152 2 2.1773 1.9962 2.17576 0.445683 -0.207419 0.168337
13 2 7.10298 0.603889 2.7081 -0.407567 0.393105 -0.501731
89 1 5.02809 2.69165 2.80106 -0.0860316 -0.117548 -0.1543
129 2 9.19912 3.0869 4.29091 0.177983 -0.252657 -0.479076
186 1 8.54138 1.66103 0.414679 0.127821 -0.0183107 0.141909
46 2 11.0744 0.848284 4.63683 0.161404 -0.155218 -0.225823
64 2 14.1392 3.9178 3.63793 -0.165544 -0.0549909 0.24604
148 2 11.0147 3.28199 1.83448 -0.195142 0.0235007 -0.0235452
21 2 15.3408 0.598565 0.915636 -0.345634 -0.624328 0.0699666
83 1 16.2648 -0.196804 3.93411 0.0841557 0.0235687 0.335831
102 2 18.8675 1.16274 2.61963 0.211925 -0.194457 0.107386
105 2 18.7333 3.76488 -0.0705754 0.0412181 0.00693687 -0.0532982
101 1 1.73622 7.90243 1.75451 -0.0280459 0.22455 -0.105
156 2 2.6534 6.03592 3.78008 0.266111 0.0893523 0.0255541
38 1 5.16612 7.53556 3.68908 -0.18767 0.212669 -0.238383
61 2 5.53582 4.61566 0.839858 0.255767 0.105408 0.566558
62 2 7.52728 6.09346 2.54645 -0.513901 -0.128642 -0.179402
56 2 13.4793 9.02801 2.04531 0.728732 -0.000969316 0.0719576
185 2 10.6783 7.10168 2.84885 0.0976278 0.407526 0.429045
31 1 17.1108 6.88435 1.471 -0.268049 -0.0939275 -0.0818309
58 2 16.0652 4.86804 -0.203442 -0.00827784 0.380003 0.294722
70 2 15.665 7.69423 3.62636 -0.271641 0.263293 -0.120561
117 2 17.7913 9.13412 0.0422345 0.146015 -0.0396571 0.201772
155 2 19.3118 5.65998 2.26939 0.140413 -0.0147822 -0.0222949
41 2 4.42845 14.0418 1.68891 -0.0926063 -0.0223878 -0.0792194
80 2 4.0683 9.77734 2.09939 -0.0861699 -0.685906 0.232134
95 2 -0.330813 10.0758 1.83517 0.0695638 -0.204652 0.156124
125 2 2.16718 13.5873 3.31516 -0.0618318 -0.0219229 0.0735546
68 1 7.57394 9.95987 0.408837 0.171387 0.0724261 -0.0925685
106 2 7.52076 10.3768 3.15826 0.187676 -0.130537 -0.121612
184 2 6.60687 14.5859 3.47595 -0.0835616 -0.211441 -0.101555
4 2 13.081 12.8879 -0.473725 -0.00388305 0.104003 0.12498
6 2 10.3762 10.0783 0.148661 -0.373737 0.131581 -0.0551657
60 2 10.4773 10.2137 3.65787 -0.74642 0.00869666 -0.357262
14 2 15.2168 11.1337 0.742701 -0.523977 0.147058 0.066266
26 2 19.1693 13.3771 -0.314437 0.292349 -0.0415249 0.052124
162 2 17.5001 12.433 3.14016 -0.0913811 -0.29089 0.407929
40 1 2.41805 19.358 0.897136 0.159264 0.0517768 -0.116916
74 2 1.54453 17.7133 3.55718 -0.00731956 0.217894 -0.270785
194 2 0.0501487 15.9153 1.903 0.316781 -0.0363663 0.259269
16 2 8.44427 14.955 0.945843 0.22425 0.251728 -0.108563
73 2 5.2311 18.7072 1.15086 0.364241 0.0774275 0.201447
19 2 12.1745 15.021 2.99639 -0.0504443 0.191873 -0.156952
110 1 14.4795 16.2763 4.42559 0.0183007 -0.0265581 -0.0371152
113 2 13.3668 16.5891 0.215652 0.329947 0.207527 -0.124911
140 2 10.0431 17.2076 1.9236 -0.201951 -0.291823 -0.0305929
190 2 12.7314 19.1932 1.06486 0.315163 0.254643 0.0228642
114 1 16.4496 17.966 0.325776 -0.203178 0.152433 0.0412303
147 2 16.8564 16.9145 2.85932 -0.0838557 -0.00588275 0.16745
173 2 19.2025 19.1471 0.199813 -0.204425 0.118707 0.0320365
11 2 2.47431 1.11602 5.44307 -0.265714 -0.106515 0.0309819
36 2 4.48974 2.42266 9.57402 0.247567 0.0543517 0.346658
111 1 0.111535 -0.209316 4.64478 0.0487881 -0.0108603 -0.00826115
133 2 1.39128 3.5962 7.84036 -0.637412 0.0478535 0.184491
34 2 4.97353 3.69399 5.36479 0.161388 -0.0977305 -0.10176
78 1 8.47826 4.47252 8.43779 -0.108832 -0.000271407 0.0219171
183 2 7.5978 2.35241 6.81734 -0.235669 0.105843 -0.0497308
87 2 14.312 1.72055 8.9181 0.534085 0.124438 0.141601
161 2 11.0845 4.04354 9.11791 -0.0985329 0.0599223 -0.237685
168 2 10.2846 0.884312 7.65104 -0.347687 -0.107735 0.394206
182 2 12.341 4.41406 6.05585 -0.00782459 0.0867963 0.0697029
90 2 18.8744 3.35024 6.06633 0.119863 0.051655 0.432401
97 2 15.631 2.37316 5.42291 0.184706 -0.150674 -0.166899
108 1 1.35344 6.93522 6.25902 -0.0478305 0.0425119 -0.387615
112 2 3.85361 6.55016 7.5948 0.219484 0.296945 0.395487
160 2 0.381983 8.78977 8.92072 0.204853 0.114223 0.400617
122 2 7.93093 9.09011 9.70934 0.0396719 -0.125194 0.368994
150 2 8.49901 6.62413 6.75971 0.307295 0.121294 0.0233802
163 2 5.53452 8.50094 6.32373 0.0320681 -0.154753 -0.401625
82 2 13.115 8.10086 7.01637 -0.307322 0.355941 -0.0108244
199 1 11.1122 6.79573 5.61087 -0.175343 -0.134088 0.112122
52 2 17.3856 7.54109 8.11819 -0.213874 -0.579079 -0.0443631
121 2 15.5492 5.01433 8.95092 0.45101 0.29806 -0.046792
151 2 18.3467 6.09436 5.59824 -0.0821286 0.199159 0.0723447
53 2 0.722474 9.80135 5.53473 0.00283721 -0.340306 -0.00882924
23 2 3.52469 14.5213 6.93444 -0.497066 -0.0214827 0.536574
120 2 3.21504 12.6054 9.27077 -0.0217673 0.140427 -0.491804
137 2 3.02752 11.3013 5.2953 0.16319 0.11836 -0.284614
200 1 0.428245 13.8192 9.49304 -0.161342 0.310912 0.0725156
138 2 6.46068 12.4301 7.39965 0.178281 0.0918114 0.122681
178 2 9.24511 11.5738 7.06677 -0.138517 0.0394472 0.0256725
132 2 12.3742 10.9067 7.33989 0.448066 -0.468822 -0.012222
144 2 14.4293 11.8513 5.13468 -0.163105 0.162634 0.132864
158 2 10.1745 13.4953 4.38566 0.103607 -0.383423 0.297418
51 2 18.6782 12.0673 7.54419 -0.0414984 0.20092 -0.474788
100 2 14.9173 14.368 6.48046 0.0418648 0.136341 -0.190181
143 1 16.8623 10.4408 5.13033 -0.046193 0.190962 -0.0759359
192 2 19.0591 13.8244 5.22228 -0.0143557 -0.065497 0.262308
25 2 4.52005 18.8662 6.91143 0.217073 0.0804807 0.0218727
76 2 0.751854 15.883 7.34431 0.159544 -0.621002 -0.0556948
27 2 9.509 18.6707 5.58642 0.139659 0.117092 0.227586
59 2 6.55684 17.7263 8.9605 -0.104719 -0.0397411 -0.661815
127 2 7.73761 16.0265 6.74666 -0.133273 0.512255 0.0787145
196 2 5.5368 17.1333 4.73146 0.0533126 0.0578903 0.443254
54 2 14.0402 18.7611 5.41987 -0.0527716 -0.0517745 -0.140686
107 2 10.608 14.8706 8.24035 0.0455219 0.0416974 0.361687
164 2 11.7841 17.4662 8.15235 0.213113 0.106185 0.27229
88 2 14.6835 17.4484 9.43615 0.109211 -0.283149 -0.199906
167 2 18.1547 19.4317 6.43748 -0.0319384 0.0717334 -0.370045
189 2 17.3381 16.4857 7.9096 -0.0518125 -0.0380564 0.298431
86 2 2.77573 0.374247 13.5966 0.0887729 0.0265657 -0.0607159
123 1 0.983773 2.12343 12.1174 0.206759 -0.0800213 -0.126424
154 2 0.795578 0.341166 9.80899 -0.119808 0.267561 0.315165
50 2 9.19162 0.512439 10.3952 0.220681 -0.18861 -0.144141
63 2 7.36943 2.52189 13.7873 -0.189053 0.146398 0.344793
179 2 4.97128 -0.101853 11.8956 -0.175352 0.168632 -0.0201107
15 2 12.6685 0.680895 11.4744 0.342909 0.145734 -0.0553246
44 2 13.9666 4.54961 13.1458 -0.231263 -0.0552019 0.187753
77 2 11.0963 3.88843 13.2058 0.061829 0.336731 -0.130277
28 2 14.9918 0.162584 13.1208 -0.034065 0.096021 -0.168575
131 2 17.0909 1.20355 9.64258 -0.369357 0.159193 0.105235
146 2 18.7504 1.56629 13.5826 0.243326 0.225678 0.245059
171 2 17.4071 4.54523 13.0639 -0.134137 -0.351415 -0.414137
198 1 17.5249 3.85085 10.3645 -0.133185 0.0224553 0.188737
7 2 -0.0447907 4.83835 10.2559 0.161712 -0.498219 -0.54195
92 2 3.94692 5.97733 12.428 0.28049 -0.408107 0.463943
96 2 3.2583 8.73125 9.5767 -0.300139 -0.170223 0.0868015
130 2 0.473253 7.68691 13.3902 0.0338665 0.181151 -0.33382
17 2 7.96036 7.2977 12.1936 0.173952 0.120181 0.0915925
98 1 5.84369 4.92468 14.4671 -0.0774211 -0.033055 0.0511905
119 2 6.19337 4.45371 10.5155 -0.203829 -0.090196 -0.101868
29 2 11.8839 7.38175 10.4405 -0.168072 0.182763 0.141897
69 2 11.8547 8.16367 14.6695 -0.0390699 -0.313645 0.00814395
195 1 10.6399 6.57771 12.7616 0.0537639 0.207617 -0.364805
9 2 16.0779 7.63521 12.0879 0.391843 0.0225728 0.109355
10 1 18.0075 8.59371 13.9079 -0.167406 -0.0846366 -0.072211
18 2 1.07664 11.9142 13.6952 0.135895 -0.0506026 -0.0406009
24 2 4.53205 10.8375 12.2593 -0.0507502 0.0793539 -0.276236
172 1 4.45513 14.1257 11.1983 -0.0047705 -0.0716259 0.0226622
8 2 8.23938 10.7266 13.7571 -0.0396514 0.302649 0.0149666
45 1 7.04701 11.0025 11.3676 -0.125066 0.0744858 0.12276
153 2 7.16314 13.4925 10.0701 -0.190934 -0.192683 -0.0493438
57 2 14.2757 14.1607 13.3069 -0.289517 0.284884 -0.0578559
85 2 11.7675 10.4071 11.0655 -0.0124644 -0.319818 -0.145876
94 2 11.8877 14.166 10.9933 -0.0325256 0.0525104 0.204821
170 2 14.1361 10.7783 12.5967 -0.0230584 0.0647165 -0.14122
12 2 17.3865 14.0799 9.81862 0.00904462 0.260224 -0.27792
48 2 17.5794 11.2988 14.1046 -0.0633469 -0.122792 -0.116205
65 2 -0.338318 10.878 11.0198 0.199198 -0.117129 -0.212184
142 2 15.7725 9.96949 10.3897 0.262834 -0.287427 0.119542
104 2 1.24719 16.011 11.567 -0.150715 0.024283 -0.0436339
166 2 3.27793 15.4487 14.7205 0.24945 -0.0413829 0.157573
181 2 3.50934 16.6588 9.96666 0.145985 -0.0308495 0.279445
5 2 8.30271 16.4515 11.5637 0.0615083 0.282057 0.252328
126 2 6.42805 17.6174 13.4608 0.449291 -0.0729864 0.281371
72 1 10.9007 18.4944 10.9287 -0.0415892 -0.00219484 -0.0470391
139 1 10.4177 15.2668 13.3581 -0.000456786 -0.00301129 0.0378185
191 2 12.3949 17.2113 14.0036 -0.135838 -0.195877 -0.247056
30 2 18.6186 15.5201 14.1575 0.158353 0.292954 0.209048
177 2 19.1784 18.7231 11.1259 0.0976484 -0.175462 -0.100196
193 2 16.33 15.9545 11.924 -0.0234106 -0.000250813 0.108726
66 2 3.05924 0.79391 18.0731 -0.567563 0.0208512 0.336984
116 2 0.20268 1.37749 16.3138 -0.286637 -0.196349 -0.372937
176 2 4.00302 4.14255 16.4661 0.260502 0.0970442 -0.22623
135 2 7.36443 0.909139 16.1977 -0.0687803 0.243227 -0.30094
157 2 6.69288 2.63544 18.4232 0.1174 -0.123192 0.0778251
35 2 11.504 0.868038 15.4034 0.0712524 0.130541 0.312203
47 2 11.4108 2.50823 17.6877 -0.0797241 0.0275208 -0.110732
175 1 14.2324 0.743016 15.6654 0.338009 -0.0695809 -0.0883876
99 2 17.379 1.26565 18.236 0.246278 -0.014303 -0.0902633
136 2 15.5528 2.92061 16.8541 -0.184281 -0.165733 -0.213477
1 2 4.19459 9.0952 15.6266 -0.264507 0.0563307 0.00828435
20 2 3.83279 9.13255 18.6973 0.239798 -0.0610474 -0.330931
49 2 1.98209 4.7988 14.6105 -0.213297 0.174819 -0.178308
75 2 -0.0793429 9.73089 17.3349 0.350722 -0.0243842 -0.207682
109 2 2.0355 6.92564 19.1531 0.144132 0.306505 0.28932
2 2 9.73441 4.69929 16.5452 -0.00821248 0.128194 0.104336
84 2 7.52502 6.91945 15.5546 -0.277754 -0.280734 -0.193028
141 2 6.83856 7.61109 19.0034 0.0730161 0.309359 0.0733216
67 2 10.133 6.64136 18.6332 0.0531427 -0.32972 0.198154
145 2 14.2528 7.9593 18.5642 -0.178383 -0.139602 -0.228357
180 2 13.9341 6.38438 15.4 -0.131191 0.0563508 0.140863
187 2 12.6602 5.54844 -0.32512 -0.200066 0.153362 -0.207038
128 2 17.8347 7.6163 16.4556 0.222494 -0.463372 -0.00170066
197 2 19.4318 5.041 16.6088 0.0350334 0.199194 -0.0568353
134 1 1.55678 9.51204 15.0239 -0.0530891 0.147467 0.225797
32 2 4.57421 13.4137 16.1732 0.0326644 0.205407 -0.215813
55 2 2.025 11.7565 18.3083 -0.196503 -0.122816 -0.258029
169 2 0.372542 13.5312 16.1359 -0.11227 0.1449 0.0865514
79 2 6.55748 12.3626 19.2307 0.175461 -0.211195 0.1388
93 1 8.60328 12.8129 17.5031 0.0836465 -0.30285 0.0625646
165 2 7.39458 13.3649 14.9523 0.139544 -0.0961442 0.122656
42 2 10.0899 10.4653 17.4578 -0.14157 0.303573 -0.340089
43 2 11.9173 12.9516 15.245 0.0844569 0.0448492 -0.200407
174 1 13.8262 12.733 17.0501 0.318976 -0.300421 0.238812
37 2 15.9528 14.346 16.4914 -0.0407356 0.016191 0.199336
118 1 18.093 12.0794 16.7819 0.175058 -0.285198 -0.0632163
149 2 14.8993 10.2825 16.6832 0.0315987 -0.0802697 -0.0398365
3 2 2.72073 16.5772 18.9101 -0.0558251 0.311182 -0.122463
91 2 3.49996 18.056 16.5983 0.0458501 -0.202169 0.12769
81 2 -0.203676 17.1405 18.1679 -0.0155121 -0.201346 -0.0794683
22 2 6.80825 18.0451 18.6626 0.0677835 0.0406925 -0.0986177
71 2 9.28578 19.2159 19.4397 -0.0911908 -0.0996675 0.0656862
188 2 8.37644 16.6645 15.8799 -0.232955 -0.163325 -0.0919478
39 2 12.964 17.2785 16.8771 -0.013452 -0.160124 -0.0884495
159 2 10.0403 14.9005 18.4162 -0.0716035 0.0241437 -0.18074
33 2 19.2723 18.1369 15.5486 -0.0450167 -0.168147 -0.214708
103 2 15.491 18.4563 16.5513 -0.206589 0.182221 0.160451
115 2 16.8167 14.6796 19.447 -0.697076 0.261069 -0.199017
ITEM: TIMESTEP
200
ITEM: NUMBER OF ATOMS
200
ITEM: BOX BOUNDS pp pp pp
-5.9758901891233762e-01 1.9810549018912347e+01
-5.9758901891233762e-01 1.9810549018912347e+01
-5.9758901891233762e-01 1.9810549018912347e+01
ITEM: ATOMS id type x y z fx fy fz
124 2 2.25473 3.13109 19.4496 -0.0857323 0.166312 0.0530501
152 2 2.1471 1.90797 1.72634 0.15625 0.0969797 0.366609
13 2 6.6863 0.474913 2.21549 0.193241 0.226218 0.439127
89 1 4.81574 2.55489 2.49763 0.182155 0.21157 0.193722
129 2 9.31326 2.81432 3.96104 -0.210892 -0.141508 0.19314
186 1 8.63888 1.46549 0.323872 -0.203788 0.234706 -0.458296
46 2 11.1136 0.606185 4.45076 0.16322 -0.201807 -0.147498
64 2 14.1726 3.72342 3.69006 -0.0428721 -0.0655118 0.014921
148 2 11.0426 3.25228 1.83144 0.224777 -0.0278071 -0.45495
21 2 15.3228 0.0516981 0.879907 0.417748 0.785651 -0.0918231
83 1 16.5146 -0.310134 4.15005 -0.0632589 -0.190768 -0.181657
102 2 19.0263 0.755385 2.37637 -0.118139 0.253955 -0.120948
105 2 18.8965 3.91711 -0.202985 0.0536924 -0.195255 -0.140334
101 1 1.62785 7.96027 1.50648 -0.175036 -0.281507 0.0414672
156 2 2.62306 5.95758 3.6978 -0.079826 -0.11611 -0.185404
38 1 5.01905 7.3965 3.58327 0.274687 -0.380575 0.330478
61 2 5.73351 4.52184 0.769553 -0.766739 -0.311893 -0.489153
62 2 7.33355 5.89775 2.41382 0.207914 0.556117 0.678487
56 2 13.8034 9.10783 2.07099 -0.94029 0.0535667 -0.233341
185 2 10.6507 7.26632 2.9106 -0.00185724 0.173723 0.0554765
31 1 17.1857 6.90246 1.27668 0.251209 0.26431 0.0998267
58 2 16.2414 5.05766 -0.415022 -0.141062 -0.0840232 -0.138848
70 2 15.7407 7.77549 3.40243 0.525096 -0.307368 0.475366
117 2 18.0645 9.14886 -0.0632099 0.147864 -0.231154 0.159462
155 2 19.2811 5.45356 2.18279 0.120506 0.125646 0.114284
41 2 4.40051 14.0866 1.47692 -0.22603 -0.0149247 -0.0905853
80 2 3.90272 9.38269 2.25103 -0.0619125 0.64182 -0.527545
95 2 -0.350955 9.95698 1.73091 -0.0525201 -0.0688428 0.0373813
125 2 2.1352 13.642 3.16858 -0.16509 0.0726116 -0.0755583
68 1 7.51682 9.92194 0.156748 -0.0508628 -0.107438 0.254226
106 2 7.45663 10.3875 2.94327 -0.960891 -0.000365665 -0.238106
184 2 6.40204 14.7692 3.26578 0.290503 -0.285422 -0.0413185
4 2 13.0913 12.9611 19.7462 -0.259198 0.106323 0.260357
6 2 10.154 10.0687 0.0774918 0.204065 0.113855 -0.541019
60 2 10.0715 10.1637 3.64555 0.608469 0.0314925 -0.0562775
14 2 14.9822 11.2428 0.738093 0.522267 0.543873 -0.225462
26 2 19.3738 13.4383 -0.613259 -0.414545 0.267156 -0.0949902
162 2 17.7041 12.4375 3.09047 -0.0155747 0.1119 -0.0759759
40 1 2.40926 19.7209 0.588169 0.0113766 -0.252615 -0.244022
74 2 1.40013 18.0586 3.1872 0.234863 -0.130911 0.0664687
194 2 -0.0313045 15.9621 1.98824 0.0703517 0.0351541 0.0870202
16 2 8.58261 15.0653 0.674815 -0.242661 -0.295166 -0.0995518
73 2 5.19107 18.8162 1.05982 -0.161804 -0.222329 -0.250639
19 2 12.0831 15.2856 2.91819 -0.0756255 -0.140731 -0.121035
110 1 14.6233 16.3876 4.18585 -0.126469 0.00209376 -0.0224549
113 2 13.3931 16.885 -0.120208 0.117037 0.1027 0.0800397
140 2 9.95473 17.1231 1.8894 0.190207 0.261773 0.291348
190 2 12.8108 19.4528 0.99665 -0.567049 -0.272842 -0.0156378
114 1 16.2613 17.964 0.270588 0.131053 -0.33249 -0.0691646
147 2 16.8952 17.0405 2.8223 0.180018 -0.368107 -0.161022
173 2 19.1395 19.2539 0.0297218 0.122403 0.032999 -0.0307702
11 2 2.27528 0.844048 5.01446 -0.11389 0.0229996 -0.0484656
36 2 4.52734 2.25707 9.7185 0.375244 -0.00487582 0.13232
111 1 -0.0218982 -0.356628 4.39268 -0.00290314 -0.0962406 -0.275824
133 2 1.12343 3.32972 7.93822 0.820127 -0.360566 -0.487222
34 2 4.97798 3.51248 5.08731 0.00431324 -0.09995 0.0138359
78 1 8.52538 4.38709 8.3901 -0.120524 -0.0624429 -0.146576
183 2 7.44704 2.3839 6.69909 -0.130083 0.0503562 -0.0999261
87 2 14.4777 1.65042 8.94107 -0.490131 -0.032342 -0.0994012
161 2 11.1262 3.92432 9.03125 -0.183143 0.0335606 -0.166439
168 2 10.1636 0.639625 7.60308 0.0611195 0.398414 0.0289395
182 2 12.4355 4.41053 5.98484 -0.0558423 -0.0765534 0.139468
90 2 19.2528 3.34461 6.3183 -0.474595 -0.136849 -0.462086
97 2 15.9504 2.15842 5.22287 -0.114407 0.348006 0.220482
108 1 1.25669 7.10332 5.82819 0.0497774 -0.179922 0.292912
112 2 3.76487 6.81945 7.72764 0.139597 0.0391668 -0.2004
160 2 0.160587 8.90671 8.99608 -0.302176 -0.186588 -0.053646
122 2 8.06199 9.12558 10.0487 -0.121082 -0.0461843 -0.0304064
150 2 8.64513 6.67648 6.80381 -0.372483 0.00487718 0.135107
163 2 5.51128 8.46773 6.14187 -0.0562676 -0.19741 -0.215475
82 2 12.7538 7.98043 6.91373 0.226279 -0.484976 -0.117741
199 1 10.8925 6.60181 5.46324 0.523751 -0.145771 0.211722
52 2 17.3718 7.23068 8.019 0.129424 0.330924 -0.0553045
121 2 15.9396 5.07941 8.99176 -0.600078 0.00283399 -0.343108
151 2 18.8093 6.10244 5.6343 -0.0117888 0.0799486 -0.0871038
53 2 0.456421 9.78271 5.58252 0.239891 0.0913763 -0.280138
23 2 3.29042 14.533 7.20208 1.00902 0.00916059 -0.667689
120 2 3.10941 12.6923 9.24798 -0.0263764 -0.37469 0.634972
137 2 2.8131 11.3316 4.90773 0.0456802 -0.169651 0.0246657
200 1 0.24426 14.0223 9.66074 0.0313884 -0.167837 -0.0751798
138 2 6.67053 12.6345 7.44846 -0.256275 -0.138375 -0.339433
178 2 9.3485 11.7751 6.91724 0.0958881 0.128523 -0.182314
132 2 12.3929 10.6852 7.13986 0.200541 0.622856 0.189511
144 2 14.4622 11.9983 5.25004 -0.0249791 -0.138434 -0.243006
158 2 10.1232 13.6018 4.27182 0.0294463 -0.214938 0.285908
51 2 18.6989 12.129 7.29004 -0.297465 -0.451161 -0.0339481
100 2 15.2726 14.6224 6.24603 -0.173362 0.167345 -0.0323188
143 1 16.9678 10.6418 4.97135 -0.0367103 -0.00585876 0.450778
192 2 19.281 13.8217 5.21398 0.0989664 0.327912 -0.431197
25 2 4.50939 18.993 6.89242 -0.22524 0.496987 0.278089
76 2 0.858631 15.6208 7.3156 -1.17899 0.66092 -0.0917036
27 2 9.6427 18.8624 5.81017 -0.0718323 -0.0823515 -0.362063
59 2 6.46126 17.8523 8.76755 -0.287609 0.595683 0.712835
127 2 7.69491 16.3408 6.89672 0.269236 -0.511437 -0.74457
196 2 5.46446 17.2105 4.91742 0.125098 -0.205013 -0.333934
54 2 14.1095 18.7887 5.14645 -0.0998823 0.186734 0.149562
107 2 10.693 14.9973 8.58976 0.0460078 0.116486 0.0199871
164 2 12.0244 17.576 8.30317 -0.172612 0.0722787 -0.104066
88 2 14.6772 17.6609 9.31831 0.290649 -0.113085 0.219344
167 2 18.4406 19.5616 6.10239 0.0237545 -0.142538 0.303223
189 2 17.2382 16.4155 8.03982 0.0258367 0.630996 -0.345426
86 2 2.48104 0.237257 13.4343 0.151766 -0.144342 0.27544
123 1 0.845567 1.98263 11.9434 0.240735 0.21919 0.369632
154 2 0.673614 0.204406 9.89092 -0.372955 -0.443607 -0.0655265
50 2 9.41512 0.443628 10.3005 -0.266142 -0.258954 0.410396
63 2 6.98657 2.49204 13.8966 -0.029884 0.325493 -0.249394
179 2 4.82645 -0.41992 12.0974 -0.233598 0.370775 -0.261635
15 2 12.8154 0.474737 11.3993 -0.0508237 0.252664 -0.143908
44 2 13.8588 4.5995 13.2252 0.0393669 -0.156525 -0.0296454
77 2 11.1039 3.96249 13.189 -0.331437 0.151888 -0.187092
28 2 14.8649 0.0342643 13.2903 0.49451 -0.132441 -0.0484138
131 2 17.058 1.13802 9.6948 0.413316 -0.472672 0.0523213
146 2 18.9959 1.65702 13.7179 -0.25646 -0.0500547 -0.555545
171 2 17.266 4.28194 12.8496 0.310404 -0.0638993 0.367144
198 1 17.6767 3.64037 10.3393 0.290826 0.243972 -0.0201381
7 2 -0.191618 4.58231 9.93636 -0.30509 0.467942 1.0074
92 2 3.99409 5.62759 12.6736 0.215915 0.111343 -0.052438
96 2 2.87996 8.85393 9.45095 0.487986 0.0468752 0.346149
130 2 0.106865 7.68989 13.5542 0.160777 0.313467 -0.238271
17 2 8.00524 7.23177 12.2395 -0.141192 0.01692 0.205357
98 1 5.79118 4.87974 14.6253 0.0686459 -0.179837 0.130909
119 2 6.2876 4.26344 10.4839 -0.0368936 -0.124097 -0.117491
29 2 11.7962 7.43719 10.4615 0.41237 -0.176916 -0.268829
69 2 11.5383 7.91048 14.8749 0.0932902 0.0708876 -0.18958
195 1 10.6053 6.57956 12.6712 0.0369066 0.0872913 0.351221
9 2 16.3366 7.57122 12.187 -0.0221579 -0.0952346 0.0701693
10 1 17.956 8.60946 14.1208 0.437516 -0.114907 0.267614
18 2 1.03732 11.8298 13.8666 -0.0210019 0.207731 -0.0993816
24 2 4.6264 10.96 12.3631 -0.347489 0.180067 -0.170163
172 1 4.45226 14.2057 11.2282 -0.040086 -0.269891 -0.046729
8 2 8.11222 10.7337 13.9407 0.122861 0.100784 0.188702
45 1 7.05945 11.1338 11.5209 0.0647985 -0.307442 -0.0237071
153 2 7.23229 13.4507 10.0795 -0.0577532 0.273429 0.376859
57 2 14.2842 14.4366 13.3655 0.112238 0.137292 0.267915
85 2 11.8978 10.2415 10.9167 -0.237386 0.129445 0.191326
94 2 12.1188 14.5278 11.1444 -0.0436152 -0.171638 -0.0303162
170 2 14.1431 10.9336 12.5496 0.13663 -0.162805 -0.26206
12 2 17.4114 14.1732 9.6414 0.0969328 -0.383404 0.464143
48 2 17.8357 11.2861 14.3315 -0.136359 -0.0368166 -0.216317
65 2 -0.276862 10.788 11.0202 -0.0886235 0.25729 0.26178
142 2 16.0587 9.90431 10.6282 -0.112423 0.0920413 0.119515
104 2 1.00276 16.0118 11.4096 0.0283238 0.265185 0.279981
166 2 3.18553 15.6527 15.0439 0.134789 0.0802401 -0.217976
181 2 3.46375 16.8203 10.2244 0.0175969 -0.143867 0.292345
5 2 8.1918 16.6215 11.6283 0.492793 -0.00087977 0.0335662
126 2 6.59881 17.5578 13.719 0.210653 0.0722785 0.524888
72 1 10.9556 18.6347 10.9593 0.0654137 0.0712839 0.0779919
139 1 10.4277 15.3143 13.2947 -0.182657 -0.0251346 0.161686
191 2 12.3735 17.2289 13.9966 0.116647 -0.0202992 -0.0091144
30 2 18.8173 15.6166 14.3799 -0.0963906 -0.506271 -0.271708
177 2 19.1237 18.9242 10.9467 0.234795 0.012362 -0.125681
193 2 16.5765 15.9142 11.9648 -0.0651583 -0.00266653 0.254787
66 2 2.6714 0.634992 18.1782 -0.0636226 -0.090967 0.259639
116 2 -0.324679 1.1099 16.2089 0.153336 -0.0355475 0.495581
176 2 3.99479 4.03035 16.3885 -0.199936 0.0305151 0.152039
135 2 7.38045 1.01253 16.2178 -0.0327564 -0.100599 0.240634
157 2 6.68605 2.59074 18.5364 0.248576 -0.205847 -0.065646
35 2 11.4647 0.889628 15.6693 0.360038 -0.0559503 0.164296
47 2 11.4544 2.44905 17.9365 -0.069118 0.111579 -0.0375553
175 1 14.2815 0.601998 15.8645 -0.188337 0.0519695 -0.144168
99 2 17.6401 1.07524 18.2848 0.0945826 0.103586 -0.306469
136 2 15.7093 2.6658 16.8731 -0.0524546 0.020739 0.0570727
1 2 3.90413 9.14101 15.8359 0.428704 -0.186427 -0.430332
20 2 3.78459 9.19969 18.7274 0.523556 -0.209338 0.133766
49 2 1.86989 4.92113 14.4537 0.01447 -0.0995848 0.193537
75 2 -0.0534409 9.83897 17.3373 -0.536092 -0.514123 0.633135
109 2 1.99061 7.09512 19.2963 -0.0456978 -0.176115 0.256005
2 2 9.94881 4.7619 16.7868 -0.120264 -0.130384 0.079265
84 2 7.39778 6.68997 15.7005 -0.04779 -0.116273 -0.0717877
141 2 6.7043 7.66369 19.2637 0.0343473 0.326673 0.0442253
67 2 10.1676 6.31781 19.1289 -0.395058 0.115176 0.0156745
145 2 14.2194 7.82016 18.6591 -0.0431037 -0.0126894 -0.123645
180 2 13.8248 6.37204 15.5262 -0.0916288 0.173374 0.17456
187 2 12.8137 5.68124 -0.412505 -0.0406152 -0.259102 0.148036
128 2 18.0441 7.45954 16.6877 -0.691824 0.564669 0.0774763
197 2 19.5034 5.22488 16.6375 0.419547 -0.5639 -0.00338824
134 1 1.38024 9.4897 15.1602 -0.113544 -0.0695327 -0.752013
32 2 4.58168 13.5482 16.1611 -0.0448575 -0.120002 0.155671
55 2 1.92329 11.7077 18.1607 0.17963 0.745399 0.356142
169 2 0.348474 13.637 16.3875 -0.106317 0.0566451 -0.195085
79 2 6.6321 12.2479 19.4149 -0.327386 0.106272 0.0601565
93 1 8.59465 12.8627 17.6957 -0.096839 0.212486 0.0682292
165 2 7.41641 13.3142 15.1233 0.17108 0.268534 0.0863743
42 2 10.0025 10.719 17.6175 0.446701 -0.654711 -0.103142
43 2 12.1639 12.9698 15.2522 0.342771 0.0394173 0.105697
174 1 14.0307 12.7122 17.2634 -0.407516 0.254276 -0.313483
37 2 16.045 14.4309 16.7705 0.0250204 -0.0119106 -0.0607736
118 1 18.5434 12.0778 17.0403 -0.180622 -0.0615428 -0.035177
149 2 14.8741 10.3063 16.9411 0.384382 -0.263937 -0.383988
3 2 2.57054 16.7432 19.0649 -0.12483 0.0477567 0.121294
91 2 3.44795 18.1378 16.7896 0.254881 -0.248451 -0.227188
81 2 -0.183111 17.3416 18.2574 -0.282153 -0.203355 -0.0450085
22 2 6.90264 18.2183 18.9053 -0.0408819 -0.0112083 -0.117167
71 2 9.33376 19.3488 19.678 -0.0483115 0.00147683 -0.0446953
188 2 8.34994 16.6482 15.9719 -0.280198 0.0269877 -0.147957
39 2 12.9582 17.5333 16.9048 0.0699363 -0.245706 -0.0552706
159 2 10.1957 14.8753 18.6184 -0.176816 0.0244079 -0.2379
33 2 19.3222 18.0787 15.4605 0.0485383 0.346638 0.196877
103 2 15.5117 18.7352 16.779 -0.232823 -0.0587179 0.0136781
115 2 16.7562 14.6126 19.5144 0.416527 -0.0735274 0.20818
ITEM: TIMESTEP
300
ITEM: NUMBER OF ATOMS
200
ITEM: BOX BOUNDS pp pp pp
-6.9449312377275341e-01 1.9907453123772754e+01
-6.9449312377275341e-01 1.9907453123772754e+01
-6.9449312377275341e-01 1.9907453123772754e+01
ITEM: ATOMS id type x y z fx fy fz
124 2 2.27369 3.13851 19.1968 -0.0964245 0.0691025 0.369949
152 2 2.30471 1.89707 1.6202 -0.256737 -0.108427 0.201249
13 2 6.43522 0.535135 1.99009 0.509144 -0.204322 0.0399059
89 1 4.77767 2.59322 2.31562 0.118668 -0.299195 -0.0473044
129 2 9.36824 2.50756 3.69836 0.215234 -0.225014 0.0385856
186 1 8.53598 1.55587 -0.0934013 0.313218 -0.435729 0.300046
46 2 11.2537 0.297595 4.20931 -0.163544 0.0485536 0.132514
64 2 14.1463 3.53312 3.76143 0.126351 -0.10144 -0.286522
148 2 11.126 3.21754 1.6502 0.00895035 -0.116937 -0.105657
21 2 15.3696 -0.09399 0.84319 -0.171752 -0.122984 -0.0160624
83 1 16.6096 -0.514804 4.20654 -0.0980627 0.164646 -0.246068
102 2 19.0425 0.585525 2.09526 -0.280532 0.440459 -0.330258
105 2 19.0253 4.00679 -0.345262 -0.293461 0.105045 -0.0831698
101 1 1.47877 7.7894 1.42721 0.193656 -0.0867943 0.313269
156 2 2.58417 5.84266 3.53628 -0.415086 -0.193677 -0.0438962
38 1 5.0126 7.04028 3.64626 -0.560354 0.618416 -0.390023
61 2 5.60483 4.41011 0.641043 0.0737991 0.646235 0.0857171
62 2 7.15703 5.96287 2.5987 0.103914 -0.273364 -0.297139
56 2 13.7775 9.2151 2.03586 0.478284 0.118218 -0.0100612
185 2 10.6334 7.53744 3.05491 0.131973 -0.492753 -0.345515
31 1 17.3454 7.00255 1.28458 -0.160605 -0.40273 0.00230602
58 2 16.307 5.26581 -0.592167 0.276897 -0.0702005 0.194363
70 2 15.9299 7.7852 3.38855 -0.473363 0.256469 -0.270631
117 2 18.3593 9.06269 -0.0664137 -0.227977 0.0231271 -0.244665
155 2 19.2925 5.34184 2.16876 0.154347 -0.00799162 -0.0773916
41 2 4.28028 14.1055 1.28433 0.0628513 0.125065 0.101423
80 2 3.74699 9.26688 2.18719 0.224674 0.00238616 -0.0695556
95 2 -0.330359 9.82108 1.73877 0.0383128 0.248197 0.324278
125 2 2.0312 13.7213 3.02527 -0.117069 0.135289 -0.0690313
68 1 7.48568 9.96091 0.202112 -0.128962 0.076889 -0.662012
106 2 6.97294 10.3607 2.67866 0.128157 -0.0287878 0.617326
184 2 6.36297 14.7379 3.06677 -0.0858884 0.0669068 0.0170423
4 2 12.9567 13.0633 19.9433 0.0221819 -0.0415446 -0.219543
6 2 10.0604 10.1315 -0.247848 0.598206 -0.0929523 0.453688
60 2 9.87164 10.1714 3.56926 -0.175919 0.482174 0.00639595
14 2 14.9486 11.6028 0.692501 0.14452 -0.355413 0.199937
26 2 19.3405 13.6014 19.7242 0.646843 -0.189657 0.21371
162 2 17.8302 12.4637 3.08643 -0.10146 -0.0947907 0.0731313
40 1 2.45277 19.732 0.156427 -0.0157166 -0.208997 0.431908
74 2 1.48628 18.2451 2.94993 0.0422216 -0.592712 0.127816
194 2 -0.0114307 15.9637 2.14501 0.0173596 0.0514586 -0.0025793
16 2 8.61875 15.0249 0.440157 -0.109562 0.0721684 0.303111
73 2 5.12693 18.7937 0.88112 0.00601063 0.213566 -0.22872
19 2 11.9782 15.4266 2.7859 0.542469 -0.289303 -0.096311
110 1 14.613 16.4995 3.95603 -0.0286008 0.046469 0.121293
113 2 13.4954 17.1159 -0.354252 -0.354381 -0.0873413 0.376301
140 2 9.92326 17.1018 2.03079 -0.317143 0.190997 -0.154506
190 2 12.6845 19.628 0.97257 0.448929 -0.150079 -0.270085
114 1 16.1604 17.736 0.217177 0.284822 0.437118 0.0949847
147 2 16.9849 16.888 2.74988 -0.0658953 -0.0218736 -0.219014
173 2 19.1029 19.3352 -0.101119 0.156599 -0.112077 -0.232749
11 2 2.07377 0.675555 4.61602 0.137118 0.338338 0.00297128
36 2 4.75197 2.02166 9.90775 -0.0189227 -0.278214 -0.065788
111 1 -0.177691 -0.551682 3.98031 -0.0581131 -0.0497779 0.34692
133 2 1.19263 3.00346 7.8669 -0.446185 0.297399 0.104203
34 2 4.99237 3.34074 4.89239 -0.405279 0.242368 0.245676
78 1 8.38878 4.32602 8.21308 0.0237355 0.0858997 -0.0111033
183 2 7.24396 2.4482 6.53039 0.223907 -0.381072 -0.133919
87 2 14.3821 1.59708 8.96361 0.407818 -0.146938 0.142602
161 2 11.0391 3.85459 8.84759 -0.310008 -0.115972 0.0850435
168 2 10.0552 0.672485 7.64171 0.149812 0.12181 0.175335
182 2 12.5111 4.29188 6.05921 -0.0220452 -0.325919 0.256566
90 2 19.3537 3.27521 6.38213 0.176267 0.125324 -0.0917277
97 2 16.1673 2.16625 5.18221 -0.0673031 -0.0290421 0.0524991
108 1 1.27403 7.11727 5.72769 0.216955 -0.0410167 0.377156
112 2 3.80735 7.08695 7.78393 -0.0879156 -0.445631 -0.0676211
160 2 -0.098508 8.9121 9.07509 0.307556 -0.0897984 0.00716908
122 2 8.13117 9.07993 10.3076 -0.193434 0.131631 -0.460028
150 2 8.63376 6.72274 6.91723 -0.186733 -0.0556887 0.0151872
163 2 5.50949 8.35587 5.88877 0.154439 0.305931 0.355177
82 2 12.6404 7.72401 6.83403 0.451322 0.683251 0.202136
199 1 10.8554 6.35251 5.46976 -0.215447 0.242253 -0.014498
52 2 17.4562 7.20882 7.84925 -0.126227 -0.119609 0.180444
121 2 15.9039 5.0575 8.89369 0.304939 0.0389288 -0.14538
151 2 19.1652 6.19915 5.63739 -0.195005 -0.354394 0.0219353
53 2 0.383574 9.76041 5.47485 0.370573 0.0456742 -0.235999
23 2 3.39872 14.5587 7.21127 -0.53006 -0.043718 0.180523
120 2 3.02399 12.6409 9.43569 -0.199235 0.374902 -0.721086
137 2 2.73324 11.2544 4.56052 0.0564788 -0.427053 0.187371
200 1 0.130317 14.0752 9.70036 -0.0490108 -0.0545886 -0.145636
138 2 6.74974 12.7575 7.36299 -0.106037 0.222698 0.242517
178 2 9.49121 12.039 6.68523 -0.125735 -0.324405 0.737896
132 2 12.5694 10.7999 7.06521 0.204504 -0.33512 0.142708
144 2 14.3929 12.0182 5.2411 -0.008848 0.0595317 -0.14764
158 2 10.0543 13.497 4.41427 -0.165495 0.267592 -0.468058
51 2 18.5222 11.9745 7.00439 0.46786 0.606717 0.634797
100 2 15.4646 14.9546 6.05745 -0.288667 -0.219812 -0.0439655
143 1 16.9916 10.8285 5.24112 -0.434495 -0.302802 -0.622992
192 2 19.4817 13.9597 5.01754 -0.0163185 -0.0964508 -0.000351115
25 2 4.46284 19.3058 7.07691 0.0448146 -0.0839536 -0.28551
76 2 0.581321 15.5531 7.25145 0.433588 -0.0997583 0.0972184
27 2 9.72937 18.9688 5.84928 -0.0348102 0.0692249 -0.270079
59 2 6.21302 18.2256 8.87765 0.16697 -0.166396 0.169256
127 2 7.71417 16.4202 6.6481 -0.28441 0.124633 0.0256298
196 2 5.53658 17.1053 4.98257 -0.00685565 -0.154735 -0.0420973
54 2 14.0911 18.8821 5.00203 -0.00950029 0.244018 0.215389